LAMMPS (10 Sep 2025)
  using 5 OpenMP thread(s) per MPI task
Reading data file ...
  orthogonal box = (-20 -20 -20) to (20 20 20)
  1 by 1 by 1 MPI processor grid
  reading atoms ...
  5541 atoms
  reading velocities ...
  5541 velocities
  scanning bonds ...
  3 = max bonds/atom
  scanning angles ...
  1 = max angles/atom
  orthogonal box = (-20 -20 -20) to (20 20 20)
  1 by 1 by 1 MPI processor grid
  reading bonds ...
  3844 bonds
  reading angles ...
  1787 angles
Finding 1-2 1-3 1-4 neighbors ...
  special bond factors lj:    0        0        0       
  special bond factors coul:  0        0        0       
     3 = max # of 1-2 neighbors
     6 = max # of 1-3 neighbors
    18 = max # of 1-4 neighbors
    17 = max # of special neighbors
  special bonds CPU = 0.002 seconds
  read_data CPU = 0.077 seconds
180 atoms in group carbon
5361 atoms in group water
1787 atoms in group oxygen
3574 atoms in group hydrogen
60 atoms in group c60_1
60 atoms in group c60_2
60 atoms in group c60_3
WARNING: Detected non-ASCII characters in input. Will try to continue by replacing with ASCII equivalents where known. (src/input.cpp:479)
ïêïêïêïêïêïêïêïêïêïêïêïêïêïêïêïêïêïêïêïêïêïêïêïêïêïêïêïêïêïêïêïêïêïêïêïêïêïêïêïêïêïêïêïêïêïêïêïêïêïêïêïêïêïêïêïêïêïêïêïêïêïêïêïêïêïêïêïêïêïêïêïêïêïêïêïê
SYSTEM INFORMATION:
  Epsilon (O-C): 0.65 kcal/mol
  Random seed:   42
  Timestep:      2.0 fs (with SHAKE constraints)
  PPPM grid:     40ó40ó40 (LOCKED to prevent artifacts)
ïêïêïêïêïêïêïêïêïêïêïêïêïêïêïêïêïêïêïêïêïêïêïêïêïêïêïêïêïêïêïêïêïêïêïêïêïêïêïêïêïêïêïêïêïêïêïêïêïêïêïêïêïêïêïêïêïêïêïêïêïêïêïêïêïêïêïêïêïêïêïêïêïêïêïêïê

===== STAGE 0: Gentle Minimization (removing any overlaps) =====
Using CPU pair style for numerical stability during minimization


CITE-CITE-CITE-CITE-CITE-CITE-CITE-CITE-CITE-CITE-CITE-CITE-CITE

Your simulation uses code contributions which should be cited:
- GPU package (short-range, long-range and three-body potentials): doi:10.1016/j.cpc.2010.12.021, doi:10.1016/j.cpc.2011.10.012, doi:10.1016/j.cpc.2013.08.002, doi:10.1016/j.commatsci.2014.10.068, doi:10.1016/j.cpc.2016.10.020, doi:10.3233/APC200086
The log file lists these citations in BibTeX format.

CITE-CITE-CITE-CITE-CITE-CITE-CITE-CITE-CITE-CITE-CITE-CITE-CITE

Switching to 'neigh_modify every 1 delay 0 check yes' setting during minimization
PPPM initialization ...
  extracting TIP4P info from pair style
  using 12-bit tables for long-range coulomb
  G vector (1/distance) = 0.28512662
  grid = 50 50 50
  stencil order = 5
  estimated absolute RMS force accuracy = 0.00038934319
  estimated relative force accuracy = 1.1724955e-06
  using double precision FFTW3
  3d grid and FFT values/proc = 185193 125000

--------------------------------------------------------------------------
- Using acceleration for lj/cut/tip4p/long/gpu:
-  with 1 proc(s) per device.
-  with 5 thread(s) per proc.
-  Horizontal vector operations: ENABLED
-  Shared memory system: No
--------------------------------------------------------------------------
Device 0: Quadro RTX 6000, 72 CUs, 22/23 GB, 1.8 GHZ (Mixed Precision)
--------------------------------------------------------------------------

Initializing Device and compiling on process 0...Done.
Initializing Device 0 on core 0...Done.

Generated 0 of 3 mixed pair_coeff terms from geometric mixing rule
Setting up cg style minimization ...
  Unit style    : real
  Current step  : 0
Per MPI rank memory allocation (min/avg/max) = 51.83 | 51.83 | 51.83 Mbytes
   Step          Temp          Press          Volume         PotEng         KinEng         TotEng        Density    
         0   36.495381      27206.418      64000         -23240.935      602.67332     -22638.262      0.89136653   
        10   36.495381     -19496.891      64000         -142264.19      602.67332     -141661.51      0.89136653   
Loop time of 0.23592 on 5 procs for 10 steps with 5541 atoms

456.1% CPU use with 1 MPI tasks x 5 OpenMP threads

Minimization stats:
  Stopping criterion = max iterations
  Energy initial, next-to-last, final = 
     -23240.9349780667  -124598.567930744  -142264.185887957
  Force two-norm initial, final = 2152.6747 6845.293
  Force max component initial, final = 49.702745 355.717
  Final line search alpha, max atom move = 0.00038348145 0.13641087
  Iterations, force evaluations = 10 10

MPI task timing breakdown:
Section |  min time  |  avg time  |  max time  |%varavg| %total
---------------------------------------------------------------
Pair    | 0.0093021  | 0.0093021  | 0.0093021  |   0.0 |  3.94
Bond    | 0.0022829  | 0.0022829  | 0.0022829  |   0.0 |  0.97
Kspace  | 0.21765    | 0.21765    | 0.21765    |   0.0 | 92.26
Neigh   | 0          | 0          | 0          |   0.0 |  0.00
Comm    | 0.003462   | 0.003462   | 0.003462   |   0.0 |  1.47
Output  | 7.6568e-05 | 7.6568e-05 | 7.6568e-05 |   0.0 |  0.03
Modify  | 1.76e-06   | 1.76e-06   | 1.76e-06   |   0.0 |  0.00
Other   |            | 0.00314    |            |       |  1.33

Nlocal:           5541 ave        5541 max        5541 min
Histogram: 1 0 0 0 0 0 0 0 0 0
Nghost:          33839 ave       33839 max       33839 min
Histogram: 1 0 0 0 0 0 0 0 0 0
Neighs:              0 ave           0 max           0 min
Histogram: 1 0 0 0 0 0 0 0 0 0

Total # of neighbors = 0
Ave neighs/atom = 0
Ave special neighs/atom = 2.4872767
Neighbor list builds = 0
Dangerous builds = 0
Minimization complete. PE = -142264.185887957 kcal/mol (was -23,217)

Applying SHAKE constraints...
Finding SHAKE clusters ...
       0 = # of size 2 clusters
       0 = # of size 3 clusters
       0 = # of size 4 clusters
    1787 = # of frozen angles
  find clusters CPU = 0.002 seconds
SHAKE constraint verification:
  Expected: ~2000 water molecules with constrained bonds and angles
  Check minimization output for cluster sizes

GPU Acceleration Status:
  úì Pair forces (LJ):      GPU (lj/cut/tip4p/long/gpu)
  úì Coulomb (PPPM):        CPU (pppm/tip4p) - GPU suffix not available
  úì Neighbor lists:        GPU (neigh yes)
  Üí Expected speedup:      2-3ó vs CPU-only version (pair forces only)

===== STAGE 1: NVT Thermalization (50 ps, GPU) =====
Objective: Reach 300K while maintaining initial density
PPPM initialization ...
  extracting TIP4P info from pair style
  using 12-bit tables for long-range coulomb
  G vector (1/distance) = 0.28512662
  grid = 50 50 50
  stencil order = 5
  estimated absolute RMS force accuracy = 0.00038934319
  estimated relative force accuracy = 1.1724955e-06
  using double precision FFTW3
  3d grid and FFT values/proc = 185193 125000


---------------------------------------------------------------------
      Device Time Info (average): 
---------------------------------------------------------------------
Data Transfer:   0.0013 s.
Neighbor copy:   0.0003 s.
Neighbor build:  0.0029 s.
Force calc:      0.0138 s.
Device Overhead: 0.0161 s.
CPU Neighbor:    0.0010 s.
CPU Cast/Pack:   0.0053 s.
CPU Driver_Time: 0.0004 s.
CPU Idle_Time:   0.0001 s.
Average split:   1.0000.
Max Mem / Proc:  98.37 MB.
Prefetch mode:   None.
Vector width:    32.
Lanes / atom:    8.
Pair block:      256.
Neigh block:     128.
Neigh mode:      Hybrid (binning on host) with subgroup support
---------------------------------------------------------------------


--------------------------------------------------------------------------
- Using acceleration for lj/cut/tip4p/long/gpu:
-  with 1 proc(s) per device.
-  with 5 thread(s) per proc.
-  Horizontal vector operations: ENABLED
-  Shared memory system: No
--------------------------------------------------------------------------
Device 0: Quadro RTX 6000, 72 CUs, 20/23 GB, 1.8 GHZ (Mixed Precision)
--------------------------------------------------------------------------

Initializing Device and compiling on process 0...Done.
Initializing Device 0 on core 0...Done.

Generated 0 of 3 mixed pair_coeff terms from geometric mixing rule
Setting up Verlet run ...
  Unit style    : real
  Current step  : 10
  Time step     : 2
Per MPI rank memory allocation (min/avg/max) = 51.29 | 51.29 | 51.29 Mbytes
   Step          Temp          Press          Volume         PotEng         KinEng         TotEng        Density    
        10   300           -112823.6       64000         -142264.19      3356.094      -138908.09      0.89136653   
      1000   297.85224     -1432.8581      64000         -20296.689      3332.0671     -16964.622      0.89136653   
      2000   297.80519     -1762.1043      64000         -20810.461      3331.5407     -17478.92       0.89136653   
      3000   302.3042      -1253.0839      64000         -20749.885      3381.8711     -17368.014      0.89136653   
      4000   298.23125     -816.97782      64000         -20807.734      3336.307      -17471.427      0.89136653   
      5000   305.09193     -770.22993      64000         -21010.716      3413.0574     -17597.658      0.89136653   
      6000   297.4497      -1529.719       64000         -20712.726      3327.5639     -17385.162      0.89136653   
      7000   299.16689     -1499.9333      64000         -20944.563      3346.7741     -17597.789      0.89136653   
      8000   300.49632     -2048.3392      64000         -20972.313      3361.6464     -17610.667      0.89136653   
      9000   302.3009      -1106.1177      64000         -20931.576      3381.8341     -17549.742      0.89136653   
     10000   298.6045      -734.6032       64000         -20862.056      3340.4826     -17521.573      0.89136653   
     11000   298.66622     -1640.0003      64000         -20936.706      3341.1731     -17595.533      0.89136653   
     12000   301.43903     -1035.0585      64000         -20946.67       3372.1924     -17574.477      0.89136653   
     13000   301.06075     -1381.4141      64000         -20872.92       3367.9607     -17504.959      0.89136653   
     14000   300.83268     -1047.4727      64000         -20971.901      3365.4093     -17606.492      0.89136653   
     15000   302.77027     -1663.3022      64000         -20963.025      3387.085      -17575.94       0.89136653   
     16000   296.6587      -1861.491       64000         -21043.495      3318.715      -17724.78       0.89136653   
     17000   302.66024     -892.4518       64000         -21008.909      3385.8541     -17623.054      0.89136653   
     18000   304.19052     -1575.4985      64000         -20850.275      3402.9733     -17447.302      0.89136653   
     19000   294.20542     -2208.8984      64000         -20969.275      3291.2701     -17678.005      0.89136653   
     20000   295.17857     -1461.6332      64000         -21029.966      3302.1568     -17727.809      0.89136653   
     21000   299.18342     -1025.9817      64000         -21027.225      3346.9589     -17680.266      0.89136653   
     22000   300.61689     -1412.1892      64000         -21010.209      3362.9952     -17647.214      0.89136653   
     23000   302.14407     -1840.6981      64000         -21002.746      3380.0797     -17622.666      0.89136653   
     24000   300.30695     -736.40737      64000         -21006.694      3359.5278     -17647.166      0.89136653   
     25000   297.9589      -1055.2695      64000         -20976.258      3333.2603     -17642.998      0.89136653   
     25010   294.80918     -1069.0585      64000         -20933.024      3298.0244     -17635          0.89136653   
Loop time of 717.754 on 5 procs for 25000 steps with 5541 atoms

Performance: 6.019 ns/day, 3.988 hours/ns, 34.831 timesteps/s, 192.998 katom-step/s
438.2% CPU use with 1 MPI tasks x 5 OpenMP threads

MPI task timing breakdown:
Section |  min time  |  avg time  |  max time  |%varavg| %total
---------------------------------------------------------------
Pair    | 23.304     | 23.304     | 23.304     |   0.0 |  3.25
Bond    | 0.31899    | 0.31899    | 0.31899    |   0.0 |  0.04
Kspace  | 654.19     | 654.19     | 654.19     |   0.0 | 91.14
Neigh   | 0.073211   | 0.073211   | 0.073211   |   0.0 |  0.01
Comm    | 11.681     | 11.681     | 11.681     |   0.0 |  1.63
Output  | 0.10774    | 0.10774    | 0.10774    |   0.0 |  0.02
Modify  | 24.621     | 24.621     | 24.621     |   0.0 |  3.43
Other   |            | 3.458      |            |       |  0.48

Nlocal:           5541 ave        5541 max        5541 min
Histogram: 1 0 0 0 0 0 0 0 0 0
Nghost:          33067 ave       33067 max       33067 min
Histogram: 1 0 0 0 0 0 0 0 0 0
Neighs:              0 ave           0 max           0 min
Histogram: 1 0 0 0 0 0 0 0 0 0

Total # of neighbors = 0
Ave neighs/atom = 0
Ave special neighs/atom = 2.4872767
Neighbor list builds = 2337
Dangerous builds = 1
System init for write_restart ...
PPPM initialization ...
  extracting TIP4P info from pair style
  using 12-bit tables for long-range coulomb
  G vector (1/distance) = 0.28512662
  grid = 50 50 50
  stencil order = 5
  estimated absolute RMS force accuracy = 0.00038934319
  estimated relative force accuracy = 1.1724955e-06
  using double precision FFTW3
  3d grid and FFT values/proc = 185193 125000


---------------------------------------------------------------------
      Device Time Info (average): 
---------------------------------------------------------------------
Data Transfer:   2.7386 s.
Neighbor copy:   0.6369 s.
Neighbor build:  2.6231 s.
Force calc:      21.4968 s.
Device Overhead: 0.8214 s.
CPU Neighbor:    2.3479 s.
CPU Cast/Pack:   6.2259 s.
CPU Driver_Time: 0.7433 s.
CPU Idle_Time:   0.3806 s.
Average split:   1.0000.
Max Mem / Proc:  97.97 MB.
Prefetch mode:   None.
Vector width:    32.
Lanes / atom:    8.
Pair block:      256.
Neigh block:     128.
Neigh mode:      Hybrid (binning on host) with subgroup support
---------------------------------------------------------------------


--------------------------------------------------------------------------
- Using acceleration for lj/cut/tip4p/long/gpu:
-  with 1 proc(s) per device.
-  with 5 thread(s) per proc.
-  Horizontal vector operations: ENABLED
-  Shared memory system: No
--------------------------------------------------------------------------
Device 0: Quadro RTX 6000, 72 CUs, 20/23 GB, 1.8 GHZ (Mixed Precision)
--------------------------------------------------------------------------

Initializing Device and compiling on process 0...Done.
Initializing Device 0 on core 0...Done.

Generated 0 of 3 mixed pair_coeff terms from geometric mixing rule
NVT complete. Temperature: 294.809175967694 K (target: 300K)
úì Checkpoint 1 PASSED: Density = 0.891366525253078 g/cm≥

===== STAGE 1.5: Pre-Equilibration at 100 atm (50 ps, GPU) =====
üîß CRITICAL FIX: Reducing initial pressure before main ramp
Objective: Equilibrate volume at moderate pressure to prevent PPPM artifacts

Why this is needed:
  - NVT creates high pressure (~800 atm) in fixed volume
  - Direct ramp from 800Üí1 atm caused 169k atm spike (PPPM grid change)
  - Pre-equilibrating at 100 atm reduces initial pressure safely
  - Main ramp (100Üí1 atm) will then cause only ~5% box expansion
PPPM initialization ...
  extracting TIP4P info from pair style
  using 12-bit tables for long-range coulomb
  G vector (1/distance) = 0.28512662
  grid = 50 50 50
  stencil order = 5
  estimated absolute RMS force accuracy = 0.00038934319
  estimated relative force accuracy = 1.1724955e-06
  using double precision FFTW3
  3d grid and FFT values/proc = 185193 125000

--------------------------------------------------------------------------
- Using acceleration for lj/cut/tip4p/long/gpu:
-  with 1 proc(s) per device.
-  with 5 thread(s) per proc.
-  Horizontal vector operations: ENABLED
-  Shared memory system: No
--------------------------------------------------------------------------
Device 0: Quadro RTX 6000, 72 CUs, 20/23 GB, 1.8 GHZ (Mixed Precision)
--------------------------------------------------------------------------

Initializing Device and compiling on process 0...Done.
Initializing Device 0 on core 0...Done.

Generated 0 of 3 mixed pair_coeff terms from geometric mixing rule
Setting up Verlet run ...
  Unit style    : real
  Current step  : 25010
  Time step     : 2
Per MPI rank memory allocation (min/avg/max) = 51.3 | 51.3 | 51.3 Mbytes
   Step          Temp          Press          Volume         PotEng         KinEng         TotEng        Density    
     25010   294.80918     -1068.7107      64000         -20933.024      3298.0244     -17635          0.89136653   
     26000   304.34853     -747.60881      61171.467     -21092.77       3404.741      -17688.029      0.9325828    
     27000   293.3822      -313.33603      58806.417     -21232.724      3282.0609     -17950.663      0.97008899   
     28000   301.50496     -558.24067      57359.956     -21278.476      3372.93       -17905.546      0.99455198   
     29000   301.23856     -939.11305      56049.333     -21322.537      3369.9498     -17952.587      1.017808     
     30000   295.9967      -338.74458      54910.533     -21227.175      3311.3092     -17915.865      1.0389165    
     31000   297.27688     -198.45025      54559.797     -21340.103      3325.6306     -18014.472      1.0455951    
     32000   296.85999      250.39067      54149.141     -21327.174      3320.9668     -18006.207      1.0535247    
     33000   308.80344     -398.11963      53998.269     -21327.118      3454.578      -17872.54       1.0564683    
     34000   308.1342       505.13664      53813.727     -21316.866      3447.0912     -17869.775      1.0600912    
     35000   297.34919     -335.35988      54205.466     -21385.427      3326.4394     -18058.988      1.05243      
     36000   309.33564      187.72535      53997.267     -21308.903      3460.5316     -17848.372      1.0564879    
     37000   296.09292      699.09691      53540.505     -21336.024      3312.3856     -18023.639      1.0655009    
     38000   301.04137      247.62924      53425.61      -21296.234      3367.7438     -17928.49       1.0677923    
     39000   295.90581     -209.03436      53704.764     -21318.415      3310.2924     -18008.122      1.062242     
     40000   306.51637     -334.95846      54694.086     -21336.855      3428.9925     -17907.862      1.0430279    
     41000   301.45732      75.651162      54255.78      -21408.471      3372.397      -18036.074      1.051454     
     42000   297.13405      617.87162      53904.71      -21393.076      3324.0327     -18069.043      1.0583019    
     43000   298.72785      387.08538      53871.448     -21316.107      3341.8626     -17974.245      1.0589553    
     44000   304.41621     -699.87944      54153.582     -21373.547      3405.498      -17968.049      1.0534383    
     45000   297.64733      267.80183      53990.259     -21276.855      3329.7748     -17947.08       1.056625     
     46000   298.83588     -241.15619      53804.428     -21539.849      3343.0711     -18196.778      1.0602744    
     47000   299.15706      202.49644      53939.019     -21381.309      3346.664      -18034.645      1.0576287    
     48000   302.38481      66.017152      53795.284     -21309.552      3382.7729     -17926.779      1.0604546    
     49000   296.87443      675.89777      53697.599     -21329.492      3321.1283     -18008.363      1.0623838    
     50000   300.6139      -1731.407       54321.332     -21282.48       3362.9618     -17919.519      1.0501852    
     50010   302.55207     -1191.447       54318.091     -21296.174      3384.644      -17911.53       1.0502478    
Loop time of 1046.14 on 5 procs for 25000 steps with 5541 atoms

Performance: 4.129 ns/day, 5.812 hours/ns, 23.897 timesteps/s, 132.416 katom-step/s
344.5% CPU use with 1 MPI tasks x 5 OpenMP threads

MPI task timing breakdown:
Section |  min time  |  avg time  |  max time  |%varavg| %total
---------------------------------------------------------------
Pair    | 42.079     | 42.079     | 42.079     |   0.0 |  4.02
Bond    | 0.39042    | 0.39042    | 0.39042    |   0.0 |  0.04
Kspace  | 532.61     | 532.61     | 532.61     |   0.0 | 50.91
Neigh   | 0.058722   | 0.058722   | 0.058722   |   0.0 |  0.01
Comm    | 11.384     | 11.384     | 11.384     |   0.0 |  1.09
Output  | 0.015849   | 0.015849   | 0.015849   |   0.0 |  0.00
Modify  | 455.11     | 455.11     | 455.11     |   0.0 | 43.50
Other   |            | 4.49       |            |       |  0.43

Nlocal:           5541 ave        5541 max        5541 min
Histogram: 1 0 0 0 0 0 0 0 0 0
Nghost:          35495 ave       35495 max       35495 min
Histogram: 1 0 0 0 0 0 0 0 0 0
Neighs:              0 ave           0 max           0 min
Histogram: 1 0 0 0 0 0 0 0 0 0

Total # of neighbors = 0
Ave neighs/atom = 0
Ave special neighs/atom = 2.4872767
Neighbor list builds = 2329
Dangerous builds = 0
System init for write_restart ...
PPPM initialization ...
  extracting TIP4P info from pair style
  using 12-bit tables for long-range coulomb
  G vector (1/distance) = 0.2883101
  grid = 50 50 50
  stencil order = 5
  estimated absolute RMS force accuracy = 0.00033002367
  estimated relative force accuracy = 9.9385649e-07
  using double precision FFTW3
  3d grid and FFT values/proc = 205379 125000


---------------------------------------------------------------------
      Device Time Info (average): 
---------------------------------------------------------------------
Data Transfer:   3.2111 s.
Neighbor copy:   0.5745 s.
Neighbor build:  4.4282 s.
Force calc:      88.5689 s.
Device Overhead: 0.7004 s.
CPU Neighbor:    1.9081 s.
CPU Cast/Pack:   8.3565 s.
CPU Driver_Time: 0.6267 s.
CPU Idle_Time:   0.3235 s.
Average split:   1.0000.
Max Mem / Proc:  218.08 MB.
Prefetch mode:   None.
Vector width:    32.
Lanes / atom:    8.
Pair block:      256.
Neigh block:     128.
Neigh mode:      Hybrid (binning on host) with subgroup support
---------------------------------------------------------------------


--------------------------------------------------------------------------
- Using acceleration for lj/cut/tip4p/long/gpu:
-  with 1 proc(s) per device.
-  with 5 thread(s) per proc.
-  Horizontal vector operations: ENABLED
-  Shared memory system: No
--------------------------------------------------------------------------
Device 0: Quadro RTX 6000, 72 CUs, 20/23 GB, 1.8 GHZ (Mixed Precision)
--------------------------------------------------------------------------

Initializing Device and compiling on process 0...Done.
Initializing Device 0 on core 0...Done.

Generated 0 of 3 mixed pair_coeff terms from geometric mixing rule
System init for write_data ...
PPPM initialization ...
  extracting TIP4P info from pair style
  using 12-bit tables for long-range coulomb
  G vector (1/distance) = 0.2883101
  grid = 50 50 50
  stencil order = 5
  estimated absolute RMS force accuracy = 0.00033002367
  estimated relative force accuracy = 9.9385649e-07
  using double precision FFTW3
  3d grid and FFT values/proc = 205379 125000

--------------------------------------------------------------------------
- Using acceleration for lj/cut/tip4p/long/gpu:
-  with 1 proc(s) per device.
-  with 5 thread(s) per proc.
-  Horizontal vector operations: ENABLED
-  Shared memory system: No
--------------------------------------------------------------------------
Device 0: Quadro RTX 6000, 72 CUs, 20/23 GB, 1.8 GHZ (Mixed Precision)
--------------------------------------------------------------------------

Initializing Device and compiling on process 0...Done.
Initializing Device 0 on core 0...Done.

Generated 0 of 3 mixed pair_coeff terms from geometric mixing rule
WARNING: Not all mixed pair coeffs generated from mixing. Use write_data with 'pair ij' option to store all pair coeffs. (src/write_data.cpp:364)

Pre-equilibration complete:
  Density:  1.05024782978419 g/cm≥
  Pressure: -1191.44699867325 atm
  Volume:   54318.0914050727 Ö≥
úì Checkpoint 2 PASSED: System stable at 100 atm

===== STAGE 2: Gentle Pressure Ramp (100 ps, GPU) =====
Ramping pressure from 100 atm Üí 1 atm with drag damping

COMPARISON TO FAILED VERSION:
  OLD: 50 atm Üí 1 atm, no pre-equil Üí 169,712 atm spike at step 51k
  NEW: 100 atm Üí 1 atm, with pre-equil Üí should be smooth (< 500 atm max)
PPPM initialization ...
  extracting TIP4P info from pair style
  using 12-bit tables for long-range coulomb
  G vector (1/distance) = 0.2883101
  grid = 50 50 50
  stencil order = 5
  estimated absolute RMS force accuracy = 0.00033002367
  estimated relative force accuracy = 9.9385649e-07
  using double precision FFTW3
  3d grid and FFT values/proc = 205379 125000

--------------------------------------------------------------------------
- Using acceleration for lj/cut/tip4p/long/gpu:
-  with 1 proc(s) per device.
-  with 5 thread(s) per proc.
-  Horizontal vector operations: ENABLED
-  Shared memory system: No
--------------------------------------------------------------------------
Device 0: Quadro RTX 6000, 72 CUs, 20/23 GB, 1.8 GHZ (Mixed Precision)
--------------------------------------------------------------------------

Initializing Device and compiling on process 0...Done.
Initializing Device 0 on core 0...Done.

Generated 0 of 3 mixed pair_coeff terms from geometric mixing rule
Setting up Verlet run ...
  Unit style    : real
  Current step  : 50010
  Time step     : 2
Per MPI rank memory allocation (min/avg/max) = 52.14 | 52.14 | 52.14 Mbytes
   Step          Temp          Press          Volume         PotEng         KinEng         TotEng        Density    
     50010   302.55207     -1194.3644      54318.091     -21296.111      3384.644      -17911.467      1.0502478    
     50500   306.03301      374.86087      53955.979     -21410.558      3423.5852     -17986.973      1.0572963    
     51000   301.38484     -135.1461       53615.66      -21376.753      3371.5863     -18005.166      1.0640074    
     51500   297.83708      304.55119      53892.565     -21340.475      3331.8975     -18008.577      1.0585404    
     52000   295.74379      591.72196      53796.972     -21364.631      3308.4799     -18056.151      1.0604213    
     52500   300.40759      1115.0802      53843.562     -21354.316      3360.6538     -17993.662      1.0595038    
     53000   298.72654      303.26811      54066.011     -21357.164      3341.8478     -18015.316      1.0551446    
     53500   301.94846      218.78103      54040.595     -21422.308      3377.8914     -18044.417      1.0556408    
     54000   304.38248      169.76618      53852.473     -21429.266      3405.1207     -18024.146      1.0593285    
     54500   297.21013     -263.8524       54068.658     -21333.255      3324.8838     -18008.372      1.0550929    
     55000   300.86435      760.54711      53579.932     -21390.891      3365.7635     -18025.127      1.0647169    
     55500   303.05012      370.82974      53932.833     -21462.941      3390.2156     -18072.726      1.0577501    
     56000   299.95539     -100.71009      54030.025     -21368.731      3355.5949     -18013.136      1.0558473    
     56500   298.80002      215.2866       53777.836     -21318.514      3342.6699     -17975.844      1.0607987    
     57000   299.94462      522.36452      53847.398     -21332.346      3355.4745     -17976.872      1.0594283    
     57500   301.65327      18.553746      53845.269     -21363.282      3374.5891     -17988.693      1.0594702    
     58000   299.09993     -253.67611      54167.257     -21354.123      3346.025      -18008.098      1.0531724    
     58500   293.60708      188.93187      54032.646     -21292.718      3284.5765     -18008.141      1.0557961    
     59000   299.15596      167.46633      53912.745     -21382.727      3346.6518     -18036.075      1.0581442    
     59500   298.68537      319.51161      53707.451     -21373.871      3341.3873     -18032.483      1.0621889    
     60000   299.09059      899.50936      53332.851     -21371.082      3345.9205     -18025.162      1.0696495    
     60500   297.95466      79.675533      53744.529     -21380.791      3333.2128     -18047.578      1.0614561    
     61000   298.83878     -247.21841      53920.792     -21392.544      3343.1035     -18049.441      1.0579863    
     61500   303.26093      291.23845      53565.717     -21419.636      3392.574      -18027.062      1.0649994    
     62000   299.63866      747.23493      53890.391     -21409.457      3352.0517     -18057.405      1.0585831    
     62500   301.86182     -202.59996      53850.11      -21400.617      3376.9221     -18023.695      1.0593749    
     63000   298.90557      204.39593      53987.164     -21329.506      3343.8506     -17985.656      1.0566856    
     63500   300.33098     -595.62692      54126.654     -21366.009      3359.7967     -18006.212      1.0539624    
     64000   306.76241      576.06563      54080.614     -21435.299      3431.745      -18003.554      1.0548597    
     64500   296.35531      674.4043       53991.335     -21346.408      3315.321      -18031.087      1.056604     
     65000   296.02446     -406.28199      53740.75      -21271.721      3311.6197     -17960.101      1.0615307    
     65500   296.80403     -1212.431       53429.126     -21324.898      3320.3407     -18004.558      1.0677221    
     66000   302.94635     -463.51047      53697.216     -21400.806      3389.0548     -18011.751      1.0623914    
     66500   299.60399      5.5594662      54183.588     -21412.191      3351.6639     -18060.527      1.0528549    
     67000   298.45569      504.83766      53991.197     -21366.599      3338.8178     -18027.781      1.0566066    
     67500   294.0584       844.0407       53664.752     -21300.764      3289.6255     -18011.139      1.063034     
     68000   294.90682      288.39287      53860.335     -21309.99       3299.1168     -18010.873      1.0591738    
     68500   295.52202     -462.16055      54253.761     -21347.326      3305.999      -18041.327      1.0514931    
     69000   298.95289     -540.68375      54281.166     -21394.661      3344.3801     -18050.281      1.0509623    
     69500   303.43548      368.68474      54566.252     -21462.333      3394.5267     -18067.806      1.0454714    
     70000   296.25773     -801.87324      54336.808     -21407.033      3314.2293     -18092.804      1.0498861    
     70500   297.17039      365.42906      54118.118     -21333.523      3324.4393     -18009.084      1.0541286    
     71000   307.10561      346.55422      53777.882     -21455.238      3435.5844     -18019.653      1.0607978    
     71500   298.61803      348.2992       53705.443     -21358.385      3340.634      -18017.751      1.0622286    
     72000   301.23424      92.593096      53522.702     -21429.633      3369.9014     -18059.731      1.0658553    
     72500   298.36641      270.46751      53757.793     -21402.747      3337.8191     -18064.928      1.0611942    
     73000   306.11106      296.34914      54007.018     -21465.129      3424.4584     -18040.67       1.0562971    
     73500   295.55158     -372.09962      54110.741     -21335.79       3306.3297     -18029.46       1.0542723    
     74000   301.53326      14.625641      54160.96      -21369.443      3373.2466     -17996.196      1.0532948    
     74500   303.51563     -71.487941      53910.204     -21367.43       3395.4233     -17972.006      1.0581941    
     75000   301.51907      391.75124      53859.141     -21334.712      3373.0879     -17961.625      1.0591973    
     75500   300.48587      316.06476      54064.504     -21343.338      3361.5295     -17981.808      1.055174     
     76000   305.09646      306.03176      53932.921     -21405.065      3413.1081     -17991.957      1.0577483    
     76500   303.53636      37.340551      54109.695     -21391.952      3395.6552     -17996.296      1.0542927    
     77000   294.31778     -74.9432        53784.508     -21288.476      3292.5271     -17995.949      1.0606671    
     77500   307.0781      -101.85424      53716.091     -21398.344      3435.2766     -17963.067      1.062018     
     78000   300.10773      312.08351      53689.772     -21278.317      3357.2992     -17921.018      1.0625386    
     78500   295.71429      22.697837      54114.747     -21218.245      3308.1499     -17910.095      1.0541943    
     79000   299.0984       489.65301      54110.959     -21285.592      3346.0078     -17939.585      1.0542681    
     79500   301.90433     -12.65158       54014.614     -21321.212      3377.3977     -17943.815      1.0561486    
     80000   299.45391     -760.1878       53814.518     -21377.647      3349.9849     -18027.662      1.0600756    
     80500   300.91093      591.95744      53541.117     -21424.444      3366.2845     -18058.16       1.0654888    
     81000   298.38364     -659.30827      53944.877     -21363.431      3338.0118     -18025.419      1.0575139    
     81500   298.93867     -693.84762      54050.354     -21360.361      3344.2209     -18016.14       1.0554502    
     82000   301.33739      688.33869      53771.715     -21433.5        3371.0553     -18062.444      1.0609194    
     82500   302.33535     -132.10275      53735.462     -21405.712      3382.2196     -18023.493      1.0616352    
     83000   299.2514      -126.79546      53659.476     -21362.608      3347.7195     -18014.888      1.0631386    
     83500   301.50179     -135.61448      53215.659     -21416.469      3372.8945     -18043.575      1.0720051    
     84000   304.32503      9.6897749      53775.527     -21458.586      3404.4781     -18054.108      1.0608442    
     84500   302.94517      240.82545      53980.374     -21412.497      3389.0415     -18023.455      1.0568185    
     85000   299.35515      506.45889      54165.236     -21391.1        3348.8801     -18042.22       1.0532116    
     85500   301.49044      396.74522      54350.281     -21437.742      3372.7675     -18064.974      1.0496258    
     86000   297.65196     -150.47647      54263.09      -21369.849      3329.8265     -18040.023      1.0513124    
     86500   297.68855      37.870122      54130.059     -21348.694      3330.2359     -18018.458      1.0538961    
     87000   305.43292     -544.7994       53941.226     -21453.74       3416.872      -18036.868      1.0575855    
     87500   300.42422     -167.23631      54165.401     -21371.031      3360.8397     -18010.192      1.0532084    
     88000   304.46645      623.87967      54566.761     -21393.087      3406.0601     -17987.027      1.0454617    
     88500   294.40187      104.77975      54692.641     -21288.328      3293.4678     -17994.86       1.0430554    
     89000   301.45166      218.94534      53986.758     -21386.78       3372.3338     -18014.446      1.0566935    
     89500   303.06946      72.923639      53992.7       -21390.392      3390.432      -17999.96       1.0565772    
     90000   301.45366     -407.10069      53781.607     -21370.749      3372.3561     -17998.393      1.0607243    
     90500   298.61249     -342.28756      54131.075     -21329.222      3340.5719     -17988.65       1.0538763    
     91000   290.96981      164.57344      54047.415     -21275.311      3255.0735     -18020.238      1.0555076    
     91500   302.8715      -386.40104      54301.353     -21364.967      3388.2174     -17976.75       1.0505716    
     92000   299.5736       359.13697      54050.336     -21291.538      3351.324      -17940.214      1.0554506    
     92500   296.56734     -823.30554      53948.589     -21299.042      3317.6929     -17981.349      1.0574411    
     93000   299.0634      -652.04489      54171.311     -21349.576      3345.6163     -18003.959      1.0530935    
     93500   300.14915      463.17172      54069.16      -21361.084      3357.7626     -18003.322      1.0550831    
     94000   302.19194      173.71855      54191.203     -21375.282      3380.6153     -17994.667      1.052707     
     94500   302.69857      531.47807      54169.251     -21377.097      3386.2829     -17990.814      1.0531336    
     95000   301.62916     -284.78856      54197.496     -21399.506      3374.3194     -18025.186      1.0525847    
     95500   301.68035     -97.613325      53938.175     -21388.418      3374.8921     -18013.526      1.0576453    
     96000   300.26015      861.36804      53940.426     -21398.758      3359.0043     -18039.753      1.0576012    
     96500   301.62434      105.62779      53822.591     -21376.551      3374.2655     -18002.285      1.0599166    
     97000   299.61478     -384.53989      53641.341     -21328.124      3351.7846     -17976.34       1.063498     
     97500   302.83578      355.16513      53952.707     -21394.553      3387.8178     -18006.735      1.0573604    
     98000   301.99367      94.439255      54081.007     -21398.068      3378.3972     -18019.671      1.054852     
     98500   299.14234      145.43453      54078.679     -21341.51       3346.4995     -17995.011      1.0548974    
     99000   307.20045      302.67432      53918.423     -21401.353      3436.6453     -17964.707      1.0580328    
     99500   305.26997     -699.62813      54078.129     -21414.15       3415.0491     -17999.101      1.0549081    
    100000   300.38834      354.84562      53876.603     -21344.108      3360.4384     -17983.67       1.058854     
    100010   300.73963     -28.739074      53870.939     -21350.613      3364.3683     -17986.245      1.0589653    
Loop time of 2124.77 on 5 procs for 50000 steps with 5541 atoms

Performance: 4.066 ns/day, 5.902 hours/ns, 23.532 timesteps/s, 130.390 katom-step/s
343.0% CPU use with 1 MPI tasks x 5 OpenMP threads

MPI task timing breakdown:
Section |  min time  |  avg time  |  max time  |%varavg| %total
---------------------------------------------------------------
Pair    | 87.314     | 87.314     | 87.314     |   0.0 |  4.11
Bond    | 0.77597    | 0.77597    | 0.77597    |   0.0 |  0.04
Kspace  | 1102.3     | 1102.3     | 1102.3     |   0.0 | 51.88
Neigh   | 0.11723    | 0.11723    | 0.11723    |   0.0 |  0.01
Comm    | 23.023     | 23.023     | 23.023     |   0.0 |  1.08
Output  | 0.058366   | 0.058366   | 0.058366   |   0.0 |  0.00
Modify  | 902.2      | 902.2      | 902.2      |   0.0 | 42.46
Other   |            | 8.972      |            |       |  0.42

Nlocal:           5541 ave        5541 max        5541 min
Histogram: 1 0 0 0 0 0 0 0 0 0
Nghost:          35734 ave       35734 max       35734 min
Histogram: 1 0 0 0 0 0 0 0 0 0
Neighs:              0 ave           0 max           0 min
Histogram: 1 0 0 0 0 0 0 0 0 0

Total # of neighbors = 0
Ave neighs/atom = 0
Ave special neighs/atom = 2.4872767
Neighbor list builds = 4631
Dangerous builds = 0
System init for write_restart ...
PPPM initialization ...
  extracting TIP4P info from pair style
  using 12-bit tables for long-range coulomb
  G vector (1/distance) = 0.28845577
  grid = 50 50 50
  stencil order = 5
  estimated absolute RMS force accuracy = 0.00032743836
  estimated relative force accuracy = 9.860709e-07
  using double precision FFTW3
  3d grid and FFT values/proc = 205379 125000


---------------------------------------------------------------------
      Device Time Info (average): 
---------------------------------------------------------------------
Data Transfer:   6.4253 s.
Neighbor copy:   1.1433 s.
Neighbor build:  9.1889 s.
Force calc:      184.0010 s.
Device Overhead: 1.3979 s.
CPU Neighbor:    3.7213 s.
CPU Cast/Pack:   16.4438 s.
CPU Driver_Time: 1.2556 s.
CPU Idle_Time:   0.6595 s.
Average split:   1.0000.
Max Mem / Proc:  254.07 MB.
Prefetch mode:   None.
Vector width:    32.
Lanes / atom:    8.
Pair block:      256.
Neigh block:     128.
Neigh mode:      Hybrid (binning on host) with subgroup support
---------------------------------------------------------------------


--------------------------------------------------------------------------
- Using acceleration for lj/cut/tip4p/long/gpu:
-  with 1 proc(s) per device.
-  with 5 thread(s) per proc.
-  Horizontal vector operations: ENABLED
-  Shared memory system: No
--------------------------------------------------------------------------
Device 0: Quadro RTX 6000, 72 CUs, 20/23 GB, 1.8 GHZ (Mixed Precision)
--------------------------------------------------------------------------

Initializing Device and compiling on process 0...Done.
Initializing Device 0 on core 0...Done.

Generated 0 of 3 mixed pair_coeff terms from geometric mixing rule
System init for write_data ...
PPPM initialization ...
  extracting TIP4P info from pair style
  using 12-bit tables for long-range coulomb
  G vector (1/distance) = 0.28845577
  grid = 50 50 50
  stencil order = 5
  estimated absolute RMS force accuracy = 0.00032743836
  estimated relative force accuracy = 9.860709e-07
  using double precision FFTW3
  3d grid and FFT values/proc = 205379 125000

--------------------------------------------------------------------------
- Using acceleration for lj/cut/tip4p/long/gpu:
-  with 1 proc(s) per device.
-  with 5 thread(s) per proc.
-  Horizontal vector operations: ENABLED
-  Shared memory system: No
--------------------------------------------------------------------------
Device 0: Quadro RTX 6000, 72 CUs, 20/23 GB, 1.8 GHZ (Mixed Precision)
--------------------------------------------------------------------------

Initializing Device and compiling on process 0...Done.
Initializing Device 0 on core 0...Done.

Generated 0 of 3 mixed pair_coeff terms from geometric mixing rule
WARNING: Not all mixed pair coeffs generated from mixing. Use write_data with 'pair ij' option to store all pair coeffs. (src/write_data.cpp:364)

Pressure ramp complete:
  Density:  1.05896534803096 g/cm≥
  Pressure: -28.7390741314481 atm
  Volume:   53870.9389521299 Ö≥
  Box size: 37.7674951176556 Ö
úì Checkpoint 3 PASSED: Pressure ramp successful, liquid phase maintained

===== STAGE 3: NPT Equilibration (1000 ps, GPU) =====
Equilibrating at 300K, 1 atm with improved pressure control

Strategy:
  Phase 1 (400 ps): Higher damping for gentle pressure equilibration
  Phase 2 (600 ps): Standard damping for final equilibration

Phase 1: Gentle pressure equilibration (400 ps, pdamp=5000)...
PPPM initialization ...
  extracting TIP4P info from pair style
  using 12-bit tables for long-range coulomb
  G vector (1/distance) = 0.28845577
  grid = 50 50 50
  stencil order = 5
  estimated absolute RMS force accuracy = 0.00032743836
  estimated relative force accuracy = 9.860709e-07
  using double precision FFTW3
  3d grid and FFT values/proc = 205379 125000

--------------------------------------------------------------------------
- Using acceleration for lj/cut/tip4p/long/gpu:
-  with 1 proc(s) per device.
-  with 5 thread(s) per proc.
-  Horizontal vector operations: ENABLED
-  Shared memory system: No
--------------------------------------------------------------------------
Device 0: Quadro RTX 6000, 72 CUs, 20/23 GB, 1.8 GHZ (Mixed Precision)
--------------------------------------------------------------------------

Initializing Device and compiling on process 0...Done.
Initializing Device 0 on core 0...Done.

Generated 0 of 3 mixed pair_coeff terms from geometric mixing rule
Setting up Verlet run ...
  Unit style    : real
  Current step  : 100010
  Time step     : 2
Per MPI rank memory allocation (min/avg/max) = 52.14 | 52.14 | 52.14 Mbytes
   Step          Temp          Press          Volume         PotEng         KinEng         TotEng        Density    
    100010   300.73963     -34.869465      53870.939     -21350.607      3364.3683     -17986.238      1.0589653    
    101000   298.63084     -116.66683      54147.574     -21360.909      3340.7773     -18020.131      1.0535552    
    102000   301.36106      373.2194       54020.177     -21463.758      3371.3202     -18092.438      1.0560398    
    103000   300.29643     -325.02255      53826.073     -21273.052      3359.4102     -17913.642      1.059848     
    104000   297.42908     -499.35197      54388.799     -21338.857      3327.3332     -18011.524      1.0488825    
    105000   304.76917     -134.41925      54256.626     -21443.23       3409.4467     -18033.783      1.0514376    
    106000   301.11879      849.30837      53699.629     -21481.55       3368.6099     -18112.94       1.0623436    
    107000   297.32115     -1411.8658      54388.28      -21288.744      3326.1258     -17962.618      1.0488925    
    108000   297.74258     -416.25312      54046.678     -21314.009      3330.8403     -17983.168      1.055522     
    109000   301.04178     -117.94089      53690.191     -21263.139      3367.7484     -17895.391      1.0625303    
    110000   303.06399      325.96793      53814.747     -21379.376      3390.3708     -17989.005      1.0600711    
    111000   295.64515      179.74032      54594.196     -21453.791      3307.3764     -18146.415      1.0449363    
    112000   292.99983     -785.2287       54691.176     -21337.109      3277.7833     -18059.326      1.0430834    
    113000   309.73355     -272.26389      54241.862     -21353.966      3464.983      -17888.983      1.0517238    
    114000   302.8267      -824.02115      53820.032     -21361.23       3387.7163     -17973.513      1.059967     
    115000   302.9716       786.64896      53820.951     -21438.153      3389.3373     -18048.815      1.0599489    
    116000   296.75159      34.854022      54650.827     -21292.344      3319.7541     -17972.59       1.0438535    
    117000   303.89513     -736.734        54533.606     -21336.79       3399.6687     -17937.121      1.0460973    
    118000   307.13745      583.52518      53350.511     -21462.702      3435.9405     -18026.761      1.0692954    
    119000   300.81523      472.9769       53950.468     -21346.038      3365.214      -17980.824      1.0574043    
    120000   298.78704     -675.4946       54277.746     -21264.022      3342.5247     -17921.497      1.0510285    
    121000   306.33539      172.59414      53792.571     -21394.143      3426.9679     -17967.175      1.0605081    
    122000   299.30851     -293.52964      53968.469     -21343.751      3348.3584     -17995.393      1.0570516    
    123000   296.99874      406.04102      54131.995     -21198.946      3322.519      -17876.427      1.0538584    
    124000   299.42389      326.18045      54344.434     -21397.855      3349.6491     -18048.206      1.0497387    
    125000   298.00354      78.736149      54552.196     -21385.061      3333.7597     -18051.301      1.0457408    
    126000   298.04587     -136.12822      54459.047     -21297.682      3334.2332     -17963.449      1.0475295    
    127000   304.43783     -10.220266      53789.358     -21311.136      3405.7399     -17905.396      1.0605714    
    128000   304.41662      82.749283      54056.035     -21297.942      3405.5027     -17892.439      1.0553393    
    129000   298.45935      224.23239      54144.551     -21494.23       3338.8589     -18155.371      1.053614     
    130000   299.07831      239.5184       54734.091     -21327.414      3345.7831     -17981.631      1.0422656    
    131000   302.10663      9.5953426      54785.526     -21467.38       3379.6608     -18087.72       1.041287     
    132000   305.91901      449.36099      53593.192     -21475.709      3422.3099     -18053.399      1.0644534    
    133000   304.06009     -1024.9583      54034.886     -21313.076      3401.5142     -17911.562      1.0557523    
    134000   300.9653       362.08549      54018.046     -21368.744      3366.8928     -18001.851      1.0560815    
    135000   302.04341     -398.64592      53986.986     -21294.948      3378.9537     -17915.994      1.0566891    
    136000   298.77745      148.25998      53923.787     -21357.506      3342.4174     -18015.088      1.0579275    
    137000   305.42234      503.37563      54014.849     -21247.609      3416.7536     -17830.855      1.056144     
    138000   300.3986      -224.73014      54230.244     -21387.088      3360.5532     -18026.535      1.0519491    
    139000   299.4822      -625.12444      54070.391     -21337.12       3350.3014     -17986.818      1.0550591    
    140000   292.11884      208.88778      53722.04      -21369.945      3267.9277     -18102.017      1.0619004    
    141000   300.87272     -558.56181      54040.854     -21238.351      3365.8572     -17872.494      1.0556358    
    142000   299.96388     -410.8247       54144.35      -21355.838      3355.69       -18000.148      1.0536179    
    143000   310.46833      460.58798      53403.535     -21447.558      3473.203      -17974.355      1.0682337    
    144000   293.94485     -391.65701      53890.804     -21338.736      3288.3552     -18050.381      1.058575     
    145000   302.86481     -11.416054      54377.378     -21195.671      3388.1426     -17807.528      1.0491028    
    146000   300.3824       1105.8778      53880.709     -21271.507      3360.3719     -17911.135      1.0587733    
    147000   300.38772      131.56655      53886.312     -21333.98       3360.4314     -17973.549      1.0586632    
    148000   297.42571      717.72337      54091.163     -21365.751      3327.2955     -18038.455      1.0546539    
    149000   308.76498     -327.95949      54445.907     -21261.196      3454.1477     -17807.048      1.0477823    
    150000   291.59108     -374.39416      54246.758     -21222.145      3262.0236     -17960.121      1.0516289    
    151000   297.60966     -327.50178      54021.539     -21363.681      3329.3534     -18034.327      1.0560132    
    152000   295.71281     -552.55839      54864.426     -21322.063      3308.1334     -18013.929      1.0397896    
    153000   308.1773      -57.61351       54805.961     -21318.734      3447.5733     -17871.161      1.0408988    
    154000   292.7518       204.69453      54662.032     -21521.48       3275.0086     -18246.472      1.0436395    
    155000   303.5356      -79.903293      54132.443     -21378.272      3395.6467     -17982.625      1.0538497    
    156000   302.0974       494.68664      53863.266     -21507.551      3379.5576     -18127.994      1.0591162    
    157000   295.41363     -390.39354      54763.903     -21384.495      3304.7864     -18079.708      1.0416982    
    158000   304.38151     -133.97012      54405.914     -21409.74       3405.1099     -18004.63       1.0485525    
    159000   301.53399      890.12406      54077.272     -21368.02       3373.2548     -17994.765      1.0549248    
    160000   297.81351     -330.63638      54425.669     -21416.303      3331.6339     -18084.67       1.0481719    
    161000   297.3628      -150.85606      54132.753     -21380.945      3326.5917     -18054.353      1.0538436    
    162000   295.39645      657.8028       53983.509     -21417.406      3304.5942     -18112.812      1.0567571    
    163000   300.84828     -461.31082      54048.654     -21328.068      3365.5837     -17962.484      1.0554834    
    164000   304.93574     -432.21872      54431.683     -21436.167      3411.3101     -18024.857      1.0480561    
    165000   303.75477      1086.2579      54299.36      -21369.115      3398.0986     -17971.016      1.0506101    
    166000   294.63304     -307.19053      54150.928     -21467.975      3296.0539     -18171.921      1.0534899    
    167000   300.31743     -145.94711      54131.403     -21356.057      3359.6451     -17996.412      1.0538699    
    168000   301.7296       365.13348      54144.122     -21381.617      3375.443      -18006.174      1.0536224    
    169000   298.54217     -71.312935      54280.012     -21395.188      3339.7854     -18055.402      1.0509846    
    170000   298.69953     -114.11897      53969.229     -21410.628      3341.5457     -18069.082      1.0570367    
    171000   299.51118     -548.50504      54308.601     -21459.084      3350.6256     -18108.459      1.0504314    
    172000   298.74941      306.27229      54014.092     -21340.522      3342.1037     -17998.419      1.0561588    
    173000   299.4067      -369.98453      53678.484     -21340.64       3349.4567     -17991.184      1.0627621    
    174000   303.45174     -411.98655      53772.8       -21314.866      3394.7086     -17920.158      1.060898     
    175000   297.87824      306.93808      53604.854     -21370.713      3332.3579     -18038.355      1.0642219    
    176000   295.41043     -233.06424      54492.761     -21405.305      3304.7506     -18100.554      1.0468814    
    177000   297.40253      34.76853       54559.708     -21275.069      3327.0362     -17948.032      1.0455968    
    178000   303.38134      234.8514       53721.903     -21449.441      3393.9211     -18055.52       1.0619031    
    179000   299.15255      501.11905      53697.801     -21482.08       3346.6136     -18135.466      1.0623798    
    180000   296.38339     -71.533663      54066.825     -21293.321      3315.6351     -17977.686      1.0551287    
    181000   300.34076     -579.91768      53993.183     -21422.157      3359.9061     -18062.251      1.0565678    
    182000   295.09597      479.89982      53663.292     -21442.485      3301.2327     -18141.252      1.063063     
    183000   300.74074     -387.94638      54142.984     -21401.198      3364.3806     -18036.817      1.0536445    
    184000   305.14214      19.969569      54071.06      -21328.975      3413.619      -17915.356      1.055046     
    185000   297.7189       217.70208      53908.558     -21362.167      3330.5755     -18031.592      1.0582264    
    186000   297.54107     -91.426741      53840.465     -21451.806      3328.5861     -18123.22       1.0595647    
    187000   317.31706      252.63547      54369.724     -21308.506      3549.8197     -17758.687      1.0492505    
    188000   297.7494      -495.31155      54115.087     -21397.432      3330.9166     -18066.516      1.0541877    
    189000   299.04596      263.59984      54102.201     -21476.183      3345.4212     -18130.762      1.0544388    
    190000   304.60307     -544.96949      54513.791     -21290.361      3407.5884     -17882.772      1.0464775    
    191000   302.1203       0.14124288     54356.296     -21392.446      3379.8138     -18012.632      1.0495097    
    192000   304.38392     -269.10281      54129.51      -21379.04       3405.1368     -17973.903      1.0539068    
    193000   297.98076     -628.91547      54116.808     -21342.466      3333.5048     -18008.961      1.0541542    
    194000   306.94961     -337.05555      53831.575     -21420.164      3433.8391     -17986.325      1.0597397    
    195000   292.5919      -1056.2778      54179.556     -21412.493      3273.2197     -18139.273      1.0529333    
    196000   310.43694     -33.698257      54397.263     -21380.867      3472.8519     -17908.015      1.0487193    
    197000   306.54752     -529.34072      53940.129     -21372.792      3429.341      -17943.451      1.057607     
    198000   296.95596     -584.87158      53913.396     -21370.512      3322.0404     -18048.472      1.0581314    
    199000   302.01963     -29.565705      53953.62      -21402.547      3378.6876     -18023.859      1.0573425    
    200000   296.08047      521.2205       54474.769     -21148.123      3312.2464     -17835.876      1.0472272    
    201000   304.15934      46.74002       54592.673     -21358.11       3402.6245     -17955.486      1.0449655    
    202000   301.52744      165.04321      54081.254     -21455.355      3373.1815     -18082.174      1.0548472    
    203000   305.29992     -114.54487      53900.134     -21381.983      3415.3841     -17966.599      1.0583918    
    204000   301.14796     -310.44855      54237.498     -21311.622      3368.9362     -17942.686      1.0518084    
    205000   302.24769      180.03549      54171.667     -21436.174      3381.2389     -18054.935      1.0530866    
    206000   306.50764     -804.62062      53994.344     -21452.999      3428.8949     -18024.104      1.0565451    
    207000   297.14        -24.999757      54114.617     -21401.387      3324.0993     -18077.288      1.0541968    
    208000   299.18205     -750.63737      54512.637     -21443.463      3346.9436     -18096.519      1.0464997    
    209000   306.84998      439.63414      53764.914     -21450.118      3432.7246     -18017.393      1.0610536    
    210000   302.34847      228.14975      54011.789     -21469.038      3382.3663     -18086.672      1.0562038    
    211000   300.27336     -293.51961      54213.168     -21393.228      3359.1521     -18034.076      1.0522805    
    212000   293.51997      181.44936      54237.601     -21521.451      3283.602      -18237.849      1.0518064    
    213000   299.26839     -591.93026      54256.858     -21332.622      3347.9096     -17984.713      1.0514331    
    214000   297.47403      699.83621      53702.784     -21519.067      3327.8361     -18191.231      1.0622812    
    215000   298.20867     -218.97552      53925.166     -21377.377      3336.0545     -18041.322      1.0579005    
    216000   303.11348     -614.77625      54486.019     -21431.107      3390.9245     -18040.183      1.0470109    
    217000   306.03756     -618.14235      53846.937     -21357.326      3423.6361     -17933.69       1.0594374    
    218000   300.60029     -38.893893      53701.32      -21411.167      3362.8095     -18048.358      1.0623102    
    219000   299.23156      97.713007      54102.521     -21368.309      3347.4975     -18020.811      1.0544325    
    220000   297.51587      186.38117      54290.268     -21410.2        3328.3041     -18081.896      1.0507861    
    221000   297.17542      153.50641      54213.418     -21355.72       3324.4956     -18031.225      1.0522756    
    222000   297.33142      340.75322      54375.943     -21319.923      3326.2407     -17993.683      1.0491304    
    223000   298.01363      564.97664      54133.941     -21445.915      3333.8726     -18112.042      1.0538205    
    224000   297.04465      379.02219      54350.895     -21399.341      3323.0326     -18076.309      1.049614     
    225000   294.98457     -250.51318      53749.235     -21450.596      3299.9865     -18150.609      1.0613631    
    226000   300.38694     -103.0114       53828.915     -21424.378      3360.4227     -18063.956      1.0597921    
    227000   295.73951      207.14568      54408.348     -21385.855      3308.432      -18077.423      1.0485056    
    228000   295.67939     -164.01036      53555.303     -21362.25       3307.7594     -18054.491      1.0652065    
    229000   291.45501      239.46013      54013.872     -21353.709      3260.5014     -18093.207      1.0561631    
    230000   304.21256     -282.80087      54223.01      -21315.931      3403.2198     -17912.712      1.0520895    
    231000   296.6393      -10.859447      53774.313     -21255.857      3318.498      -17937.359      1.0608682    
    232000   298.58105      66.400343      53734.584     -21327.523      3340.2203     -17987.303      1.0616525    
    233000   301.73477     -229.38713      53830.211     -21266.892      3375.5008     -17891.391      1.0597666    
    234000   296.04602     -45.544919      53578.911     -21394.955      3311.8609     -18083.094      1.0647372    
    235000   305.12361     -31.089552      54028.658     -21553.288      3413.4118     -18139.876      1.055874     
    236000   296.9194       8.8025858      54160.744     -21367.558      3321.6314     -18045.926      1.053299     
    237000   300.97662      64.60147       54786.633     -21344.513      3367.0194     -17977.493      1.041266     
    238000   303.22293     -899.55421      54135.89      -21375.78       3392.1489     -17983.631      1.0537826    
    239000   300.96744      247.64042      53306.601     -21334.055      3366.9168     -17967.138      1.0701762    
    240000   296.93688     -26.296709      53656.793     -21356.887      3321.827      -18035.06       1.0631917    
    241000   302.70713     -291.34772      54147.332     -21405.714      3386.3786     -18019.335      1.0535599    
    242000   292.87619     -1004.0902      53890.796     -21369.273      3276.4001     -18092.873      1.0585752    
    243000   296.49142     -55.747914      54214.232     -21516.022      3316.8437     -18199.178      1.0522598    
    244000   292.48269     -207.95874      54078.82      -21293.093      3271.9981     -18021.095      1.0548946    
    245000   293.37241     -900.8977       54085.206     -21316.892      3281.9513     -18034.941      1.0547701    
    246000   289.81695     -651.25161      53745.603     -21305.507      3242.1764     -18063.331      1.0614349    
    247000   301.52092     -141.44768      54326.534     -21321.727      3373.1085     -17948.619      1.0500846    
    248000   302.06183     -181.04741      54407.428     -21337.094      3379.1597     -17957.934      1.0485233    
    249000   298.10947     -439.64613      53659.985     -21371.526      3334.9447     -18036.581      1.0631285    
    250000   295.88442     -579.00886      53927.746     -21423.715      3310.0531     -18113.662      1.0578498    
    251000   305.98079     -134.22357      54244.681     -21401.28       3423.001      -17978.279      1.0516692    
    252000   297.35574      539.42279      53985.851     -21366.78       3326.5127     -18040.267      1.0567113    
    253000   297.15853      159.45285      53880.872     -21446.611      3324.3065     -18122.304      1.0587701    
    254000   297.11151      32.282457      53934.407     -21264.455      3323.7805     -17940.675      1.0577192    
    255000   302.1544       24.22284       53989.144     -21390.917      3380.1953     -18010.722      1.0566468    
    256000   304.1432      -234.04627      54722.971     -21308.322      3402.4439     -17905.878      1.0424773    
    257000   301.81843      598.69284      54351.924     -21427.09       3376.4368     -18050.654      1.0495941    
    258000   296.49027     -453.46075      53971.688     -21379.267      3316.8307     -18062.436      1.0569886    
    259000   299.07882      7.1054317      54026.143     -21324.454      3345.7888     -17978.665      1.0559232    
    260000   297.75774     -191.95978      54136.982     -21404.459      3331.0099     -18073.449      1.0537613    
    261000   299.14697      926.67847      54218.502     -21404.984      3346.5512     -18058.433      1.0521769    
    262000   299.41699     -732.55364      54510.055     -21324.767      3349.5719     -17975.195      1.0465493    
    263000   302.0064      -122.17672      53908.32      -21338.541      3378.5396     -17960.002      1.058231     
    264000   301.86781      139.8579       54213.854     -21436.059      3376.9892     -18059.069      1.0522672    
    265000   299.25722     -289.52475      54325.222     -21212.404      3347.7846     -17864.62       1.05011      
    266000   300.90935      192.88877      53293.387     -21379.164      3366.2669     -18012.897      1.0704416    
    267000   287.03708      788.58489      53692.861     -21405.68       3211.0781     -18194.602      1.0624775    
    268000   302.33696      412.67199      54107.537     -21433.163      3382.2375     -18050.925      1.0543348    
    269000   306.32283     -562.48464      53902.73      -21348.294      3426.8275     -17921.467      1.0583408    
    270000   305.89394      123.05649      53966.108     -21264.679      3422.0294     -17842.649      1.0570979    
    271000   293.09493     -650.5211       54236.536     -21365.694      3278.8471     -18086.847      1.0518271    
    272000   293.46983      151.54853      54101.151     -21315.167      3283.0411     -18032.125      1.0544592    
    273000   303.54555     -115.58487      54171.896     -21430.639      3395.758      -18034.881      1.0530822    
    274000   295.51126     -228.92419      54132.96      -21432.62       3305.8785     -18126.742      1.0538396    
    275000   298.38324     -61.58645       53398.542     -21237.452      3338.0074     -17899.445      1.0683336    
    276000   300.46195     -67.43404       53682.977     -21327.525      3361.2619     -17966.263      1.0626731    
    277000   298.30005     -564.1112       54226.857     -21272.113      3337.0767     -17935.036      1.0520148    
    278000   304.33773      436.5823       54230.92      -21383.856      3404.6201     -17979.236      1.051936     
    279000   298.88507     -75.518535      54289.418     -21384.24       3343.6213     -18040.618      1.0508025    
    280000   296.88582      523.56769      54229.949     -21342.788      3321.2558     -18021.533      1.0519549    
    281000   303.37831     -101.66981      54426.24      -21400.23       3393.8871     -18006.343      1.0481609    
    282000   303.01578      99.282537      53938.091     -21351.898      3389.8315     -17962.067      1.0576469    
    283000   298.94304      1151.1935      53846.97      -21503.202      3344.2698     -18158.932      1.0594367    
    284000   290.95456      601.73051      54223.265     -21541.845      3254.9029     -18286.942      1.0520845    
    285000   305.546       -822.72633      54028.597     -21384.39       3418.137      -17966.253      1.0558752    
    286000   293.99256     -160.57462      53820.664     -21334.607      3288.8889     -18045.718      1.0599545    
    287000   299.93723     -590.29953      54532.968     -21428.467      3355.3919     -18073.075      1.0461095    
    288000   302.63851      804.12077      54104.366     -21216.47       3385.6109     -17830.859      1.0543966    
    289000   297.99282     -234.90169      54231.298     -21364.538      3333.6397     -18030.899      1.0519287    
    290000   296.07344     -121.14498      54449.61      -21346.083      3312.1677     -18033.915      1.0477111    
    291000   305.94559      434.45918      54719.98      -21343.166      3422.6072     -17920.559      1.0425343    
    292000   295.55013     -253.17939      53577.567     -21387.221      3306.3135     -18080.907      1.0647639    
    293000   301.60037     -468.04978      53898.172     -21383.568      3373.9973     -18009.57       1.0584303    
    294000   304.11173      175.20295      54725.724     -21407.673      3402.0919     -18005.581      1.0424249    
    295000   302.30733      254.64401      54780.668     -21368.524      3381.9061     -17986.618      1.0413794    
    296000   307.2804      -105.40441      53893.841     -21326.548      3437.5397     -17889.008      1.0585153    
    297000   300.89862     -379.86841      53689.052     -21489.783      3366.1469     -18123.637      1.0625529    
    298000   296.36813     -658.4406       53954.571     -21284.06       3315.4644     -17968.596      1.0573239    
    299000   301.88389      415.6811       53701.73      -21430.879      3377.1691     -18053.71       1.062302     
    300000   303.04181      594.28518      53948.306     -21390.092      3390.1227     -17999.969      1.0574467    
    300010   299.24523      670.1167       53950.464     -21365.04       3347.6504     -18017.39       1.0574044    
Loop time of 8537.02 on 5 procs for 200000 steps with 5541 atoms

Performance: 4.048 ns/day, 5.928 hours/ns, 23.427 timesteps/s, 129.811 katom-step/s
342.4% CPU use with 1 MPI tasks x 5 OpenMP threads

MPI task timing breakdown:
Section |  min time  |  avg time  |  max time  |%varavg| %total
---------------------------------------------------------------
Pair    | 349.87     | 349.87     | 349.87     |   0.0 |  4.10
Bond    | 3.5246     | 3.5246     | 3.5246     |   0.0 |  0.04
Kspace  | 4423.5     | 4423.5     | 4423.5     |   0.0 | 51.82
Neigh   | 0.4704     | 0.4704     | 0.4704     |   0.0 |  0.01
Comm    | 92.814     | 92.814     | 92.814     |   0.0 |  1.09
Output  | 0.90634    | 0.90634    | 0.90634    |   0.0 |  0.01
Modify  | 3630.1     | 3630.1     | 3630.1     |   0.0 | 42.52
Other   |            | 35.8       |            |       |  0.42

Nlocal:           5541 ave        5541 max        5541 min
Histogram: 1 0 0 0 0 0 0 0 0 0
Nghost:          35712 ave       35712 max       35712 min
Histogram: 1 0 0 0 0 0 0 0 0 0
Neighs:              0 ave           0 max           0 min
Histogram: 1 0 0 0 0 0 0 0 0 0

Total # of neighbors = 0
Ave neighs/atom = 0
Ave special neighs/atom = 2.4872767
Neighbor list builds = 18527
Dangerous builds = 0

Phase 1 complete:
  Density:  1.05740439619605 g/cm≥
  Pressure: 670.116698632024 atm

Phase 2: Final equilibration (600 ps, pdamp=2000)...
PPPM initialization ...
  extracting TIP4P info from pair style
  using 12-bit tables for long-range coulomb
  G vector (1/distance) = 0.28842978
  grid = 50 50 50
  stencil order = 5
  estimated absolute RMS force accuracy = 0.00032789813
  estimated relative force accuracy = 9.8745547e-07
  using double precision FFTW3
  3d grid and FFT values/proc = 205379 125000


---------------------------------------------------------------------
      Device Time Info (average): 
---------------------------------------------------------------------
Data Transfer:   25.7671 s.
Neighbor copy:   4.5954 s.
Neighbor build:  37.0522 s.
Force calc:      734.6376 s.
Device Overhead: 5.6903 s.
CPU Neighbor:    15.2130 s.
CPU Cast/Pack:   64.7834 s.
CPU Driver_Time: 5.1125 s.
CPU Idle_Time:   2.6453 s.
Average split:   1.0000.
Max Mem / Proc:  135.10 MB.
Prefetch mode:   None.
Vector width:    32.
Lanes / atom:    8.
Pair block:      256.
Neigh block:     128.
Neigh mode:      Hybrid (binning on host) with subgroup support
---------------------------------------------------------------------


--------------------------------------------------------------------------
- Using acceleration for lj/cut/tip4p/long/gpu:
-  with 1 proc(s) per device.
-  with 5 thread(s) per proc.
-  Horizontal vector operations: ENABLED
-  Shared memory system: No
--------------------------------------------------------------------------
Device 0: Quadro RTX 6000, 72 CUs, 20/23 GB, 1.8 GHZ (Mixed Precision)
--------------------------------------------------------------------------

Initializing Device and compiling on process 0...Done.
Initializing Device 0 on core 0...Done.

Generated 0 of 3 mixed pair_coeff terms from geometric mixing rule
Setting up Verlet run ...
  Unit style    : real
  Current step  : 300010
  Time step     : 2
Per MPI rank memory allocation (min/avg/max) = 54.69 | 54.69 | 54.69 Mbytes
   Step          Temp          Press          Volume         PotEng         KinEng         TotEng        Density    
    300010   299.24523      672.34094      53950.464     -21365.058      3347.6504     -18017.407      1.0574044    
    301000   296.57875      194.96308      54283.252     -21344.328      3317.8206     -18026.508      1.0509219    
    302000   294.23944     -218.6101       53856.789     -21388.793      3291.6508     -18097.142      1.0592436    
    303000   298.43322      936.00364      53727.054     -21542.208      3338.5666     -18203.641      1.0618013    
    304000   292.79065     -49.382355      53806.247     -21420.293      3275.4432     -18144.85       1.0602386    
    305000   304.03134      242.72206      53702.503     -21307.856      3401.1925     -17906.663      1.0622868    
    306000   297.45659      324.1163       54211.009     -21344.013      3327.641      -18016.372      1.0523224    
    307000   296.24795     -999.54913      54404.996     -21215.653      3314.1199     -17901.533      1.0485702    
    308000   300.56463      550.61606      54036.276     -21395.997      3362.4106     -18033.586      1.0557252    
    309000   295.82793     -429.38052      53730.209     -21348.726      3309.4212     -18039.305      1.061739     
    310000   296.78642      6.3632007      54195.048     -21347.801      3320.1438     -18027.657      1.0526323    
    311000   290.78506     -161.54021      54362.934     -21271.298      3253.0067     -18018.292      1.0493815    
    312000   300.66119      305.86653      54312.81      -21318.367      3363.4908     -17954.876      1.05035      
    313000   307.47473     -214.31612      54259.164     -21326.887      3439.7137     -17887.174      1.0513884    
    314000   295.53996     -3.7752133      53688.003     -21541.03       3306.1996     -18234.83       1.0625736    
    315000   301.66587      65.903853      53740.373     -21380.938      3374.7301     -18006.208      1.0615382    
    316000   299.20571      220.9096       54231.007     -21325.138      3347.2084     -17977.929      1.0519343    
    317000   302.33974      351.40619      53896.928     -21267.111      3382.2687     -17884.842      1.0584547    
    318000   301.71299     -65.600187      54085.896     -21359.468      3375.2572     -17984.211      1.0547566    
    319000   289.60564     -301.49131      53934.825     -21332.842      3239.8125     -18093.029      1.057711     
    320000   299.04321     -11.055868      54706.612     -21335.75       3345.3904     -17990.36       1.0427891    
    321000   298.8998      -1246.5627      54297.514     -21348.361      3343.7861     -18004.575      1.0506459    
    322000   304.28517     -513.30945      54380.048     -21333.227      3404.0322     -17929.195      1.0490512    
    323000   294.30166     -467.24909      54066.011     -21353.299      3292.3468     -18060.952      1.0551446    
    324000   306.48929      1222.3087      53685.672     -21318.979      3428.6896     -17890.289      1.0626198    
    325000   301.06354      335.46331      53743.305     -21439.927      3367.9918     -18071.936      1.0614803    
    326000   299.52363     -247.79434      54414.238     -21313.775      3350.7649     -17963.01       1.0483921    
    327000   302.39651     -720.72653      54423.009     -21226.843      3382.9038     -17843.939      1.0482231    
    328000   298.75177      99.677099      53638.145     -21337.53       3342.1302     -17995.4        1.0635613    
    329000   303.81924     -314.63793      54204.71      -21359.623      3398.8198     -17960.803      1.0524447    
    330000   296.06362      705.48134      54191.269     -21387.671      3312.0578     -18075.613      1.0527057    
    331000   294.39321      274.31252      53499.077     -21361.553      3293.371      -18068.182      1.066326     
    332000   303.939        304.59841      53733.376     -21285.442      3400.1596     -17885.282      1.0616764    
    333000   297.67682     -22.609627      54216.254     -21389.377      3330.1046     -18059.272      1.0522206    
    334000   297.36745      175.35454      54844.346     -21214.652      3326.6438     -17888.009      1.0401703    
    335000   306.91023     -85.869117      53865.694     -21321.606      3433.3986     -17888.207      1.0590685    
    336000   298.5789       232.71016      53962.15      -21360.83       3340.1962     -18020.634      1.0571754    
    337000   295.42841      200.05803      53957.822     -21367.037      3304.9517     -18062.085      1.0572602    
    338000   298.61176      341.26137      54093.946     -21327.792      3340.5638     -17987.228      1.0545997    
    339000   300.93194      87.476106      54134.11      -21377.42       3366.5197     -18010.901      1.0538172    
    340000   306.14092      664.16484      54567.718     -21348.615      3424.7923     -17923.823      1.0454433    
    341000   306.41568     -546.58566      54056.385     -21301.986      3427.8662     -17874.119      1.0553325    
    342000   300.73119      281.01081      53902.937     -21352.363      3364.2738     -17988.089      1.0583367    
    343000   304.91147      316.0625       53939.775     -21338.707      3411.0385     -17927.668      1.0576139    
    344000   299.38019      327.58352      54358.54      -21338.7        3349.1602     -17989.54       1.0494663    
    345000   294.38581      373.08888      53965.179     -21341.055      3293.2883     -18047.767      1.0571161    
    346000   303.75811     -240.93566      54465.092     -21310.127      3398.1359     -17911.991      1.0474132    
    347000   298.36509      337.07423      54087.14      -21263.044      3337.8044     -17925.24       1.0547324    
    348000   301.89242      39.297995      54055.714     -21327.444      3377.2645     -17950.18       1.0553456    
    349000   296.69537      643.93227      54122.524     -21272.258      3319.1252     -17953.133      1.0540428    
    350000   298.28072      471.36842      54292.317     -21382.623      3336.8605     -18045.763      1.0507464    
    351000   296.30514     -22.337946      54438.114     -21238.42       3314.7597     -17923.661      1.0479323    
    352000   295.23748      320.78256      53464.598     -21453.266      3302.8158     -18150.45       1.0670137    
    353000   303.93684      220.3198       53371.037     -21331.879      3400.1354     -17931.743      1.0688842    
    354000   296.80754     -237.61989      53747.629     -21482.829      3320.3801     -18162.449      1.0613949    
    355000   294.73282     -586.12031      54365.906     -21407.795      3297.1702     -18110.625      1.0493241    
    356000   298.04923     -97.812771      53557.079     -21338.164      3334.2708     -18003.893      1.0651712    
    357000   295.75329     -929.14208      54450.053     -21315.862      3308.5862     -18007.276      1.0477025    
    358000   303.02874     -171.88765      53914.114     -21460.109      3389.9765     -18070.133      1.0581173    
    359000   299.10723      266.72756      53579.776     -21447.725      3346.1067     -18101.619      1.06472      
    360000   298.25633     -351.69406      54169.844     -21421.401      3336.5877     -18084.813      1.0531221    
    361000   295.98762      380.64481      54000.488     -21437.493      3311.2076     -18126.285      1.0564248    
    362000   299.98696      749.09331      53668.98      -21418.114      3355.9482     -18062.165      1.0629503    
    363000   304.06737      505.43904      53525.242     -21422.891      3401.5956     -18021.296      1.0658047    
    364000   293.3366      -256.91555      54568.675     -21313.334      3281.5508     -18031.783      1.045425     
    365000   299.41798      124.96186      54152.514     -21406.794      3349.5829     -18057.211      1.0534591    
    366000   292.29767     -45.492207      54496.46      -21317.595      3269.9282     -18047.667      1.0468103    
    367000   305.05471     -801.12628      54229.275     -21254.756      3412.641      -17842.115      1.0519679    
    368000   302.39683     -63.855352      53724.429     -21361.832      3382.9073     -17978.925      1.0618532    
    369000   298.40991     -38.991283      54208.866     -21272.476      3338.3057     -17934.171      1.052364     
    370000   302.03382      536.55411      53884.257     -21286.776      3378.8464     -17907.93       1.0587036    
    371000   297.19965      74.714878      54065.182     -21345.127      3324.7666     -18020.36       1.0551607    
    372000   301.99458     -107.91044      54131.004     -21375.535      3378.4073     -17997.127      1.0538777    
    373000   301.99175     -319.97724      54373.982     -21338.338      3378.3757     -17959.963      1.0491683    
    374000   300.68619      31.246646      54248.751     -21362.451      3363.7704     -17998.68       1.0515902    
    375000   298.39762     -69.86112       54168.561     -21223.654      3338.1683     -17885.486      1.053147     
    376000   295.81622      491.57837      54321.8       -21207.78       3309.2902     -17898.49       1.0501761    
    377000   295.83346      983.23374      53753.646     -21408.111      3309.4831     -18098.627      1.0612761    
    378000   301.00013      272.89663      53785.672     -21398.047      3367.2824     -18030.764      1.0606441    
    379000   305.73372     -164.98059      54070.301     -21339.729      3420.237      -17919.492      1.0550608    
    380000   297.74694     -56.888415      54189.737     -21364.956      3330.8891     -18034.067      1.0527355    
[...]
   1487000   298.66267     -1138.8682      54136.938     -21255.564      3341.1334     -17914.43       1.0537622    
   1488000   308.60004     -40.956558      53863.151     -21242.968      3452.3025     -17790.666      1.0591185    
   1489000   307.47614     -688.82271      54360.087     -21383.949      3439.7294     -17944.22       1.0494365    
   1490000   307.51036      120.20577      54586.947     -21432.556      3440.1123     -17992.443      1.0450751    
   1491000   298.21768     -46.37993       54200.425     -21370.532      3336.1553     -18034.377      1.0525279    
   1492000   297.30537      239.28137      53359.237     -21442.952      3325.9492     -18117.003      1.0691206    
   1493000   298.46334     -57.654983      53804.619     -21340.408      3338.9035     -18001.504      1.0602706    
   1494000   296.18152     -656.64486      54386.257     -21377.612      3313.3768     -18064.236      1.0489315    
   1495000   299.60011      349.25621      53924.991     -21389.313      3351.6205     -18037.692      1.0579039    
   1496000   301.29827     -185.24377      54290.32      -21534.108      3370.6177     -18163.491      1.0507851    
   1497000   300.43639      838.95538      54026.465     -21460.05       3360.976      -18099.074      1.0559169    
   1498000   295.46028     -22.772338      54540.203     -21311.214      3305.3082     -18005.906      1.0459708    
   1499000   293.32368      0.6083195      54353.621     -21302.882      3281.4062     -18021.476      1.0495613    
   1500000   298.58404      980.81595      54438.701     -21295.199      3340.2537     -17954.945      1.047921     
   1501000   300.63384     -136.79274      54219.354     -21254.651      3363.1848     -17891.466      1.0521604    
   1502000   297.16069      695.83573      54395.815     -21351.492      3324.3308     -18027.161      1.0487472    
   1503000   300.68066      687.80109      53867.97      -21230.633      3363.7086     -17866.924      1.0590237    
   1504000   298.80058     -788.24459      54355.78      -21421.428      3342.6761     -18078.752      1.0495196    
   1505000   305.37146      479.4899       54074.303     -21412.437      3416.1844     -17996.253      1.0549828    
   1506000   297.53068      153.34013      54006.11      -21242.386      3328.4698     -17913.916      1.0563149    
   1507000   303.50028      11.67113       54264.871     -21339.549      3395.2516     -17944.298      1.0512779    
   1508000   307.27262     -1316.946       54746.825     -21343.944      3437.4527     -17906.491      1.0420231    
   1509000   293.72682      958.27849      54592.931     -21352.695      3285.9161     -18066.779      1.0449605    
   1510000   297.05072     -369.93714      54107.378     -21369.06       3323.1005     -18045.96       1.0543379    
   1511000   295.98903      479.8256       54058.386     -21363.696      3311.2234     -18052.473      1.0552934    
   1512000   301.58118      404.16051      53928.55      -21512.259      3373.7827     -18138.476      1.0578341    
   1513000   297.62197      240.21284      54124.142     -21441.75       3329.4911     -18112.259      1.0540113    
   1514000   303.76282      158.24639      54069.689     -21282.095      3398.1886     -17883.906      1.0550728    
   1515000   301.99157     -159.54947      54342.933     -21380.88       3378.3737     -18002.506      1.0497677    
   1516000   305.00177     -298.47272      54003.81      -21346.02       3412.0487     -17933.971      1.0563599    
   1517000   305.93594     -627.75119      54531.521     -21258.335      3422.4993     -17835.836      1.0461373    
   1518000   304.23008      363.27582      53875.149     -21439.164      3403.4158     -18035.748      1.0588826    
   1519000   299.46518      450.96609      53354.681     -21455.016      3350.111      -18104.905      1.0692119    
   1520000   303.00784      288.4251       54260.905     -21437.825      3389.7427     -18048.083      1.0513547    
   1521000   299.92733     -47.168372      53919.215     -21426.704      3355.2811     -18071.423      1.0580172    
   1522000   303.9457      -744.83625      54579.375     -21364.557      3400.2345     -17964.322      1.0452201    
   1523000   308.75184     -456.38611      54335.303     -21354.649      3454.0007     -17900.648      1.0499152    
   1524000   306.36041      651.61677      54440.646     -21244.421      3427.2478     -17817.173      1.0478836    
   1525000   300.22702     -398.34201      54168.617     -21418.036      3358.6337     -18059.403      1.0531459    
   1526000   302.23662     -380.93786      54352.574     -21314.969      3381.1151     -17933.854      1.0495815    
   1527000   296.62375     -75.735061      54577.351     -21344.851      3318.324      -18026.527      1.0452588    
   1528000   303.47206     -251.10107      54068.835     -21407.096      3394.9359     -18012.16       1.0550895    
   1529000   300.41606     -506.49657      54231.023     -21549.576      3360.7485     -18188.827      1.051934     
   1530000   306.90869     -142.49216      54222.373     -21365.227      3433.3814     -17931.846      1.0521018    
   1531000   296.12087      623.67938      54232.028     -21326.113      3312.6983     -18013.415      1.0519145    
   1532000   298.99526      832.86174      53939.194     -21235.472      3344.854      -17890.618      1.0576253    
   1533000   296.85349      332.40568      53616.579     -21479.363      3320.8941     -18158.469      1.0639891    
   1534000   302.88185     -358.41755      54137.722     -21384.11       3388.3332     -17995.777      1.0537469    
   1535000   298.45168      253.58725      54146.676     -21331.975      3338.773      -17993.202      1.0535727    
   1536000   299.64849     -406.17874      53866         -21334.329      3352.1617     -17982.167      1.0590625    
   1537000   298.40637      1000.9453      54027.128     -21220.332      3338.2661     -17882.066      1.0559039    
   1538000   300.86052     -22.185424      53630.902     -21304.762      3365.7207     -17939.041      1.063705     
   1539000   298.61384     -226.13328      53365.84      -21468.314      3340.5871     -18127.727      1.0689883    
   1540000   300.31824      304.98568      54122.219     -21380.303      3359.6542     -18020.648      1.0540488    
   1541000   299.56016      304.50765      53935.422     -21303.688      3351.1736     -17952.514      1.0576993    
   1542000   301.79987     -1270.7013      55334.079     -21223.795      3376.2291     -17847.566      1.0309642    
   1543000   294.70507     -459.12036      53873.243     -21363.155      3296.8597     -18066.295      1.05892      
   1544000   300.75757      894.4151       53677.944     -21284.456      3364.5689     -17919.887      1.0627728    
   1545000   297.16564     -927.52811      54734.827     -21343.137      3324.3861     -18018.751      1.0422515    
   1546000   297.80299     -41.513308      54077.224     -21394.542      3331.5161     -18063.026      1.0549258    
   1547000   295.60156      522.23297      53752.972     -21441.309      3306.8887     -18134.42       1.0612894    
   1548000   297.39479     -711.7599       54521.173     -21392.081      3326.9496     -18065.131      1.0463358    
   1549000   295.34483     -1064.8362      54822.746     -21313.897      3304.0168     -18009.88       1.0405801    
   1550000   298.76784     -224.64513      54568.128     -21374.809      3342.3098     -18032.5        1.0454355    
   1551000   289.80018     -443.0585       54058.667     -21347.018      3241.9888     -18105.029      1.0552879    
   1552000   302.21215     -659.35734      54440.024     -21330.821      3380.8414     -17949.98       1.0478955    
   1553000   296.06714     -303.00376      54402.516     -21399.055      3312.0973     -18086.957      1.048618     
   1554000   297.55298      195.86634      53910.467     -21417.347      3328.7193     -18088.628      1.0581889    
   1555000   299.36613     -590.94449      53942.657     -21387.472      3349.0029     -18038.469      1.0575574    
   1556000   300.90215      875.77099      54009.376     -21403.663      3366.1864     -18037.477      1.056251     
   1557000   299.75441      172.80486      54172.636     -21448.608      3353.3466     -18095.262      1.0530678    
   1558000   305.85487     -1202.1994      54492.06      -21298.133      3421.5924     -17876.54       1.0468949    
   1559000   301.50634      427.64584      54622.532     -21326.782      3372.9455     -17953.837      1.0443942    
   1560000   305.66548     -204.833        53967.676     -21338.018      3419.4737     -17918.544      1.0570671    
   1561000   308.19458      319.66034      54286.406     -21314.625      3447.7667     -17866.858      1.0508608    
   1562000   300.53581      152.46238      53855.255     -21235.878      3362.0881     -17873.79       1.0592737    
   1563000   293.72228      135.76462      53629.055     -21332.382      3285.8653     -18046.517      1.0637416    
   1564000   303.65466      461.0134       54355.169     -21451.892      3396.9787     -18054.913      1.0495314    
   1565000   294.92843      390.98147      54414.309     -21282.02       3299.3585     -17982.661      1.0483907    
   1566000   302.61428      153.23216      54413.263     -21420.32       3385.34       -18034.98       1.0484109    
   1567000   305.9305       179.966        54475.508     -21299.379      3422.4384     -17876.94       1.047213     
   1568000   299.50329     -983.11787      54211.533     -21384.902      3350.5373     -18034.365      1.0523122    
   1569000   298.57956      774.24247      54078.212     -21244.283      3340.2036     -17904.08       1.0549065    
   1570000   299.23833      312.09958      53881.675     -21332.131      3347.5732     -17984.558      1.0587543    
   1571000   299.15389      384.70482      54316.393     -21426.754      3346.6286     -18080.126      1.0502807    
   1572000   304.06158     -145.25138      53771.549     -21346.881      3401.5309     -17945.35       1.0609227    
   1573000   299.39494     -354.64757      54057.957     -21352.754      3349.3253     -18003.429      1.0553018    
   1574000   301.8117       673.70459      53803.091     -21258.674      3376.3615     -17882.313      1.0603007    
   1575000   307.97281      478.07116      53549.845     -21397.703      3445.2857     -17952.417      1.0653151    
   1576000   296.96193      419.44921      53486.618     -21355.959      3322.1073     -18033.852      1.0665744    
   1577000   303.36491     -751.26646      53628.68      -21375.37       3393.7372     -17981.633      1.0637491    
   1578000   301.00287      442.9491       53945.386     -21262.548      3367.3131     -17895.234      1.0575039    
   1579000   298.57798      623.02835      54089.535     -21373.771      3340.1859     -18033.585      1.0546857    
   1580000   298.49883      593.62047      53622.105     -21337.613      3339.3004     -17998.313      1.0638795    
   1581000   302.56211     -490.85551      54321.134     -21412.028      3384.7563     -18027.271      1.050189     
   1582000   302.41679     -340.15218      53747.644     -21268.506      3383.1306     -17885.375      1.0613946    
   1583000   298.42947     -2.4731237      54108.73      -21458.606      3338.5245     -18120.081      1.0543115    
   1584000   299.01706     -1017.1577      54235.875     -21477.358      3345.0979     -18132.26       1.0518399    
   1585000   302.48672      762.64582      54226.046     -21255.232      3383.913      -17871.319      1.0520306    
   1586000   298.00468      25.069645      54300.998     -21358.027      3333.7725     -18024.255      1.0505784    
   1587000   302.4292       406.0054       53459.006     -21384.111      3383.2695     -18000.841      1.0671253    
   1588000   298.86006     -482.13636      54560.859     -21281.534      3343.3416     -17938.193      1.0455748    
   1589000   294.94318     -863.31901      54697.22      -21536.505      3299.5235     -18236.982      1.0429681    
   1590000   305.33824      476.645        54536.281     -21369.615      3415.8128     -17953.802      1.046046     
   1591000   301.74608     -140.27064      54554.323     -21359.849      3375.6274     -17984.222      1.0457       
   1592000   297.94685     -965.99932      54367.556     -21284.192      3333.1255     -17951.067      1.0492923    
   1593000   302.95199      76.972003      54366.089     -21292.801      3389.1179     -17903.684      1.0493206    
   1594000   301.49753     -378.65618      54237.229     -21266.698      3372.8469     -17893.851      1.0518136    
   1595000   306.08033     -20.848365      54111.823     -21290.375      3424.1145     -17866.26       1.0542513    
   1596000   308.35561     -534.08906      54404.825     -21191.215      3449.568      -17741.647      1.0485735    
   1597000   300.87568     -181.69881      53799.95      -21298.043      3365.8902     -17932.153      1.0603627    
   1598000   303.29842      834.04595      53463.909     -21312.521      3392.9934     -17919.528      1.0670274    
   1599000   294.91634      433.33273      53359.404     -21361.724      3299.2232     -18062.501      1.0691172    
   1600000   304.69117     -807.94022      53690.368     -21358.229      3408.5741     -17949.655      1.0625269    
   1600010   300.11018     -80.882678      53668.688     -21297.802      3357.3266     -17940.476      1.0629561    
Loop time of 43640.1 on 5 procs for 1000000 steps with 5541 atoms

Performance: 3.960 ns/day, 6.061 hours/ns, 22.915 timesteps/s, 126.970 katom-step/s
338.0% CPU use with 1 MPI tasks x 5 OpenMP threads

MPI task timing breakdown:
Section |  min time  |  avg time  |  max time  |%varavg| %total
---------------------------------------------------------------
Pair    | 1757.9     | 1757.9     | 1757.9     |   0.0 |  4.03
Bond    | 16.329     | 16.329     | 16.329     |   0.0 |  0.04
Kspace  | 22144      | 22144      | 22144      |   0.0 | 50.74
Neigh   | 38.107     | 38.107     | 38.107     |   0.0 |  0.09
Comm    | 458.58     | 458.58     | 458.58     |   0.0 |  1.05
Output  | 16.643     | 16.643     | 16.643     |   0.0 |  0.04
Modify  | 19029      | 19029      | 19029      |   0.0 | 43.60
Other   |            | 179.4      |            |       |  0.41

Nlocal:           5541 ave        5541 max        5541 min
Histogram: 1 0 0 0 0 0 0 0 0 0
Nghost:          35844 ave       35844 max       35844 min
Histogram: 1 0 0 0 0 0 0 0 0 0
Neighs:    4.82368e+06 ave 4.82368e+06 max 4.82368e+06 min
Histogram: 1 0 0 0 0 0 0 0 0 0

Total # of neighbors = 4823681
Ave neighs/atom = 870.5434
Ave special neighs/atom = 2.4872767
Neighbor list builds = 93207
Dangerous builds = 0

===== Saving Final Configuration =====
System init for write_data ...
PPPM initialization ...
  extracting TIP4P info from pair style
  using 12-bit tables for long-range coulomb
  G vector (1/distance) = 0.28852202
  grid = 50 50 50
  stencil order = 5
  estimated absolute RMS force accuracy = 0.00032626911
  estimated relative force accuracy = 9.8254974e-07
  using double precision FFTW3
  3d grid and FFT values/proc = 205379 125000


---------------------------------------------------------------------
      Device Time Info (average): 
---------------------------------------------------------------------
Data Transfer:   129.6611 s.
Neighbor copy:   23.2275 s.
Neighbor build:  188.5498 s.
Force calc:      3673.9100 s.
Device Overhead: 28.0576 s.
CPU Neighbor:    76.7932 s.
CPU Cast/Pack:   341.9663 s.
CPU Driver_Time: 24.9173 s.
CPU Idle_Time:   13.1950 s.
Average split:   1.0000.
Max Mem / Proc:  150.17 MB.
Prefetch mode:   None.
Vector width:    32.
Lanes / atom:    8.
Pair block:      256.
Neigh block:     128.
Neigh mode:      Hybrid (binning on host) with subgroup support
---------------------------------------------------------------------


--------------------------------------------------------------------------
- Using acceleration for lj/cut/tip4p/long/gpu:
-  with 1 proc(s) per device.
-  with 5 thread(s) per proc.
-  Horizontal vector operations: ENABLED
-  Shared memory system: No
--------------------------------------------------------------------------
Device 0: Quadro RTX 6000, 72 CUs, 20/23 GB, 1.8 GHZ (Mixed Precision)
--------------------------------------------------------------------------

Initializing Device and compiling on process 0...Done.
Initializing Device 0 on core 0...Done.

Generated 0 of 3 mixed pair_coeff terms from geometric mixing rule
WARNING: Not all mixed pair coeffs generated from mixing. Use write_data with 'pair ij' option to store all pair coeffs. (src/write_data.cpp:364)
System init for write_restart ...
PPPM initialization ...
  extracting TIP4P info from pair style
  using 12-bit tables for long-range coulomb
  G vector (1/distance) = 0.28852202
  grid = 50 50 50
  stencil order = 5
  estimated absolute RMS force accuracy = 0.00032626911
  estimated relative force accuracy = 9.8254974e-07
  using double precision FFTW3
  3d grid and FFT values/proc = 205379 125000

--------------------------------------------------------------------------
- Using acceleration for lj/cut/tip4p/long/gpu:
-  with 1 proc(s) per device.
-  with 5 thread(s) per proc.
-  Horizontal vector operations: ENABLED
-  Shared memory system: No
--------------------------------------------------------------------------
Device 0: Quadro RTX 6000, 72 CUs, 20/23 GB, 1.8 GHZ (Mixed Precision)
--------------------------------------------------------------------------

Initializing Device and compiling on process 0...Done.
Initializing Device 0 on core 0...Done.

Generated 0 of 3 mixed pair_coeff terms from geometric mixing rule

ïêïêïêïêïêïêïêïêïêïêïêïêïêïêïêïêïêïêïêïêïêïêïêïêïêïêïêïêïêïêïêïêïêïêïêïêïêïêïêïêïêïêïêïêïêïêïêïêïêïêïêïêïêïêïêïêïêïêïêïêïêïêïêïêïêïêïêïêïêïêïêïêïêïêïêïê
                     EQUILIBRATION COMPLETE - SUCCESS!
ïêïêïêïêïêïêïêïêïêïêïêïêïêïêïêïêïêïêïêïêïêïêïêïêïêïêïêïêïêïêïêïêïêïêïêïêïêïêïêïêïêïêïêïêïêïêïêïêïêïêïêïêïêïêïêïêïêïêïêïêïêïêïêïêïêïêïêïêïêïêïêïêïêïêïêïê

Simulation Summary:
  Total simulation time: 5.22 ns
    - NVT thermalization:     50 ps
    - Pre-equilibration:      50 ps  (NEW - prevents PPPM artifacts)
    - Pressure ramp:         100 ps  (EXTENDED and with drag damping)
    - NPT equilibration:    1000 ps
    - Production run:       4000 ps (4 ns)

Final Thermodynamic State:
  Temperature:    300.11017792229 K      (target: 300K)
  Pressure:       -80.8826777481269 atm   (target: 1 atm)
  Density:        1.06295607448568 g/cm≥  (target: 0.95-1.05)
  Volume:         53668.6877148709 Ö≥
  Box size:       37.7201715079106 Ö    (expected: 58-63)

Final Energies:
  Potential:      -21297.8021340122 kcal/mol
  Kinetic:        3357.32659352106 kcal/mol
  Total:          -17940.4755404911 kcal/mol


ERROR: Input line quote not followed by white-space (src/input.cpp:556)
Last input line: if "${final_dens} >= 0.85" then "if \"${final_dens} <= 1.15\" then \"jump SELF validation_success\" else \"jump SELF validation_warning\""
Cuda driver error 4 in call at file '/home/iiserk/sbs/solvent/mylammps_v2/lib/gpu/geryon/nvd_timer.h' in line 98.
Cuda driver error 4 in call at file '/home/iiserk/sbs/solvent/mylammps_v2/lib/gpu/geryon/nvd_timer.h' in line 99.
Cuda driver error 4 in call at file '/home/iiserk/sbs/solvent/mylammps_v2/lib/gpu/geryon/nvd_timer.h' in line 98.
Cuda driver error 4 in call at file '/home/iiserk/sbs/solvent/mylammps_v2/lib/gpu/geryon/nvd_timer.h' in line 99.
Cuda driver error 4 in call at file '/home/iiserk/sbs/solvent/mylammps_v2/lib/gpu/geryon/nvd_timer.h' in line 98.
Cuda driver error 4 in call at file '/home/iiserk/sbs/solvent/mylammps_v2/lib/gpu/geryon/nvd_timer.h' in line 99.
Cuda driver error 4 in call at file '/home/iiserk/sbs/solvent/mylammps_v2/lib/gpu/geryon/nvd_timer.h' in line 98.
Cuda driver error 4 in call at file '/home/iiserk/sbs/solvent/mylammps_v2/lib/gpu/geryon/nvd_timer.h' in line 99.
