LAMMPS (10 Sep 2025)
  using 5 OpenMP thread(s) per MPI task
Reading data file ...
  orthogonal box = (-20 -20 -20) to (20 20 20)
  1 by 1 by 1 MPI processor grid
  reading atoms ...
  5541 atoms
  reading velocities ...
  5541 velocities
  scanning bonds ...
  3 = max bonds/atom
  scanning angles ...
  1 = max angles/atom
  orthogonal box = (-20 -20 -20) to (20 20 20)
  1 by 1 by 1 MPI processor grid
  reading bonds ...
  3844 bonds
  reading angles ...
  1787 angles
Finding 1-2 1-3 1-4 neighbors ...
  special bond factors lj:    0        0        0       
  special bond factors coul:  0        0        0       
     3 = max # of 1-2 neighbors
     6 = max # of 1-3 neighbors
    18 = max # of 1-4 neighbors
    17 = max # of special neighbors
  special bonds CPU = 0.002 seconds
  read_data CPU = 0.078 seconds
180 atoms in group carbon
5361 atoms in group water
1787 atoms in group oxygen
3574 atoms in group hydrogen
60 atoms in group c60_1
60 atoms in group c60_2
60 atoms in group c60_3
WARNING: Detected non-ASCII characters in input. Will try to continue by replacing with ASCII equivalents where known. (src/input.cpp:479)
ïêïêïêïêïêïêïêïêïêïêïêïêïêïêïêïêïêïêïêïêïêïêïêïêïêïêïêïêïêïêïêïêïêïêïêïêïêïêïêïêïêïêïêïêïêïêïêïêïêïêïêïêïêïêïêïêïêïêïêïêïêïêïêïêïêïêïêïêïêïêïêïêïêïêïêïê
SYSTEM INFORMATION:
  Epsilon (O-C): 0.95 kcal/mol
  Random seed:   42
  Timestep:      2.0 fs (with SHAKE constraints)
  PPPM grid:     40ó40ó40 (LOCKED to prevent artifacts)
ïêïêïêïêïêïêïêïêïêïêïêïêïêïêïêïêïêïêïêïêïêïêïêïêïêïêïêïêïêïêïêïêïêïêïêïêïêïêïêïêïêïêïêïêïêïêïêïêïêïêïêïêïêïêïêïêïêïêïêïêïêïêïêïêïêïêïêïêïêïêïêïêïêïêïêïê

===== STAGE 0: Gentle Minimization (removing any overlaps) =====
Using CPU pair style for numerical stability during minimization


CITE-CITE-CITE-CITE-CITE-CITE-CITE-CITE-CITE-CITE-CITE-CITE-CITE

Your simulation uses code contributions which should be cited:
- GPU package (short-range, long-range and three-body potentials): doi:10.1016/j.cpc.2010.12.021, doi:10.1016/j.cpc.2011.10.012, doi:10.1016/j.cpc.2013.08.002, doi:10.1016/j.commatsci.2014.10.068, doi:10.1016/j.cpc.2016.10.020, doi:10.3233/APC200086
The log file lists these citations in BibTeX format.

CITE-CITE-CITE-CITE-CITE-CITE-CITE-CITE-CITE-CITE-CITE-CITE-CITE

Switching to 'neigh_modify every 1 delay 0 check yes' setting during minimization
PPPM initialization ...
  extracting TIP4P info from pair style
  using 12-bit tables for long-range coulomb
  G vector (1/distance) = 0.28512662
  grid = 50 50 50
  stencil order = 5
  estimated absolute RMS force accuracy = 0.00038934319
  estimated relative force accuracy = 1.1724955e-06
  using double precision FFTW3
  3d grid and FFT values/proc = 185193 125000

--------------------------------------------------------------------------
- Using acceleration for lj/cut/tip4p/long/gpu:
-  with 1 proc(s) per device.
-  with 5 thread(s) per proc.
-  Horizontal vector operations: ENABLED
-  Shared memory system: No
--------------------------------------------------------------------------
Device 0: Quadro RTX 6000, 72 CUs, 21/23 GB, 1.8 GHZ (Mixed Precision)
--------------------------------------------------------------------------

Initializing Device and compiling on process 0...Done.
Initializing Device 0 on core 0...Done.

Generated 0 of 3 mixed pair_coeff terms from geometric mixing rule
Setting up cg style minimization ...
  Unit style    : real
  Current step  : 0
Per MPI rank memory allocation (min/avg/max) = 51.83 | 51.83 | 51.83 Mbytes
   Step          Temp          Press          Volume         PotEng         KinEng         TotEng        Density    
         0   36.495381      27181.685      64000         -23252.496      602.67332     -22649.823      0.89136653   
        10   36.495381     -19529.594      64000         -142298.99      602.67332     -141696.32      0.89136653   
Loop time of 0.259916 on 5 procs for 10 steps with 5541 atoms

444.8% CPU use with 1 MPI tasks x 5 OpenMP threads

Minimization stats:
  Stopping criterion = max iterations
  Energy initial, next-to-last, final = 
     -23252.4963516531  -124701.967748246  -142298.990734678
  Force two-norm initial, final = 2152.6914 6846.0449
  Force max component initial, final = 49.704229 353.34528
  Final line search alpha, max atom move = 0.00038049757 0.13444702
  Iterations, force evaluations = 10 10

MPI task timing breakdown:
Section |  min time  |  avg time  |  max time  |%varavg| %total
---------------------------------------------------------------
Pair    | 0.0074419  | 0.0074419  | 0.0074419  |   0.0 |  2.86
Bond    | 0.0026096  | 0.0026096  | 0.0026096  |   0.0 |  1.00
Kspace  | 0.24278    | 0.24278    | 0.24278    |   0.0 | 93.41
Neigh   | 0          | 0          | 0          |   0.0 |  0.00
Comm    | 0.0036213  | 0.0036213  | 0.0036213  |   0.0 |  1.39
Output  | 0.00012513 | 0.00012513 | 0.00012513 |   0.0 |  0.05
Modify  | 2.221e-06  | 2.221e-06  | 2.221e-06  |   0.0 |  0.00
Other   |            | 0.00334    |            |       |  1.28

Nlocal:           5541 ave        5541 max        5541 min
Histogram: 1 0 0 0 0 0 0 0 0 0
Nghost:          33839 ave       33839 max       33839 min
Histogram: 1 0 0 0 0 0 0 0 0 0
Neighs:              0 ave           0 max           0 min
Histogram: 1 0 0 0 0 0 0 0 0 0

Total # of neighbors = 0
Ave neighs/atom = 0
Ave special neighs/atom = 2.4872767
Neighbor list builds = 0
Dangerous builds = 0
Minimization complete. PE = -142298.990734678 kcal/mol (was -23,217)

Applying SHAKE constraints...
Finding SHAKE clusters ...
       0 = # of size 2 clusters
       0 = # of size 3 clusters
       0 = # of size 4 clusters
    1787 = # of frozen angles
  find clusters CPU = 0.002 seconds
SHAKE constraint verification:
  Expected: ~2000 water molecules with constrained bonds and angles
  Check minimization output for cluster sizes

GPU Acceleration Status:
  úì Pair forces (LJ):      GPU (lj/cut/tip4p/long/gpu)
  úì Coulomb (PPPM):        CPU (pppm/tip4p) - GPU suffix not available
  úì Neighbor lists:        GPU (neigh yes)
  Üí Expected speedup:      2-3ó vs CPU-only version (pair forces only)

===== STAGE 1: NVT Thermalization (50 ps, GPU) =====
Objective: Reach 300K while maintaining initial density
PPPM initialization ...
  extracting TIP4P info from pair style
  using 12-bit tables for long-range coulomb
  G vector (1/distance) = 0.28512662
  grid = 50 50 50
  stencil order = 5
  estimated absolute RMS force accuracy = 0.00038934319
  estimated relative force accuracy = 1.1724955e-06
  using double precision FFTW3
  3d grid and FFT values/proc = 185193 125000


---------------------------------------------------------------------
      Device Time Info (average): 
---------------------------------------------------------------------
Data Transfer:   0.0014 s.
Neighbor copy:   0.0003 s.
Neighbor build:  0.0037 s.
Force calc:      0.0141 s.
Device Overhead: 0.0113 s.
CPU Neighbor:    0.0013 s.
CPU Cast/Pack:   0.0024 s.
CPU Driver_Time: 0.0006 s.
CPU Idle_Time:   0.0002 s.
Average split:   1.0000.
Max Mem / Proc:  98.37 MB.
Prefetch mode:   None.
Vector width:    32.
Lanes / atom:    8.
Pair block:      256.
Neigh block:     128.
Neigh mode:      Hybrid (binning on host) with subgroup support
---------------------------------------------------------------------


--------------------------------------------------------------------------
- Using acceleration for lj/cut/tip4p/long/gpu:
-  with 1 proc(s) per device.
-  with 5 thread(s) per proc.
-  Horizontal vector operations: ENABLED
-  Shared memory system: No
--------------------------------------------------------------------------
Device 0: Quadro RTX 6000, 72 CUs, 20/23 GB, 1.8 GHZ (Mixed Precision)
--------------------------------------------------------------------------

Initializing Device and compiling on process 0...Done.
Initializing Device 0 on core 0...Done.

Generated 0 of 3 mixed pair_coeff terms from geometric mixing rule
Setting up Verlet run ...
  Unit style    : real
  Current step  : 10
  Time step     : 2
Per MPI rank memory allocation (min/avg/max) = 51.29 | 51.29 | 51.29 Mbytes
   Step          Temp          Press          Volume         PotEng         KinEng         TotEng        Density    
        10   300           -112457         64000         -142298.99      3356.094      -138942.9       0.89136653   
      1000   299.99127     -1729.4668      64000         -20938.282      3355.9964     -17582.286      0.89136653   
      2000   295.81101     -1643.9759      64000         -21337.52       3309.2318     -18028.288      0.89136653   
      3000   302.69805     -1033.7487      64000         -21584.342      3386.2771     -18198.065      0.89136653   
      4000   309.21575     -453.84091      64000         -21625.243      3459.1905     -18166.052      0.89136653   
      5000   296.72343     -1141.422       64000         -21685.342      3319.4391     -18365.903      0.89136653   
      6000   296.17083     -1190.4535      64000         -21611.785      3313.2572     -18298.528      0.89136653   
      7000   293.50133     -1074.3792      64000         -21602.174      3283.3936     -18318.781      0.89136653   
      8000   304.64907     -1196.8825      64000         -21687.746      3408.1031     -18279.643      0.89136653   
      9000   291.47797     -816.08483      64000         -21438.094      3260.7582     -18177.336      0.89136653   
     10000   301.31137     -1578.92        64000         -21622.587      3370.7643     -18251.822      0.89136653   
     11000   304.22997     -1169.5862      64000         -21495.697      3403.4146     -18092.282      0.89136653   
     12000   297.75716     -1258.348       64000         -21612.762      3331.0035     -18281.759      0.89136653   
     13000   296.80065     -1212.8284      64000         -21599.959      3320.303      -18279.656      0.89136653   
     14000   301.14602     -1600.4681      64000         -21585.909      3368.9145     -18216.994      0.89136653   
     15000   303.39049     -1315.6296      64000         -21562.922      3394.0233     -18168.899      0.89136653   
     16000   299.11955     -870.98676      64000         -21669.999      3346.2445     -18323.755      0.89136653   
     17000   301.62328     -1039.3268      64000         -21578.779      3374.2537     -18204.526      0.89136653   
     18000   301.58159     -932.65437      64000         -21591.157      3373.7872     -18217.37       0.89136653   
     19000   300.89485     -574.02001      64000         -21688.997      3366.1047     -18322.892      0.89136653   
     20000   298.36438     -908.33096      64000         -21611.914      3337.7964     -18274.117      0.89136653   
     21000   298.28215     -550.32644      64000         -21687.012      3336.8765     -18350.135      0.89136653   
     22000   301.94206     -1344.9726      64000         -21634.775      3377.8198     -18256.955      0.89136653   
     23000   297.02018     -961.80425      64000         -21505.946      3322.7589     -18183.187      0.89136653   
     24000   301.78707     -1213.3723      64000         -21695.63       3376.086      -18319.544      0.89136653   
     25000   302.09743     -1611.143       64000         -21531.201      3379.558      -18151.643      0.89136653   
     25010   303.46013     -1863.4326      64000         -21540.842      3394.8024     -18146.04       0.89136653   
Loop time of 715.755 on 5 procs for 25000 steps with 5541 atoms

Performance: 6.036 ns/day, 3.976 hours/ns, 34.928 timesteps/s, 193.537 katom-step/s
440.9% CPU use with 1 MPI tasks x 5 OpenMP threads

MPI task timing breakdown:
Section |  min time  |  avg time  |  max time  |%varavg| %total
---------------------------------------------------------------
Pair    | 22.505     | 22.505     | 22.505     |   0.0 |  3.14
Bond    | 0.34404    | 0.34404    | 0.34404    |   0.0 |  0.05
Kspace  | 653.14     | 653.14     | 653.14     |   0.0 | 91.25
Neigh   | 0.075362   | 0.075362   | 0.075362   |   0.0 |  0.01
Comm    | 11.803     | 11.803     | 11.803     |   0.0 |  1.65
Output  | 0.11455    | 0.11455    | 0.11455    |   0.0 |  0.02
Modify  | 24.242     | 24.242     | 24.242     |   0.0 |  3.39
Other   |            | 3.536      |            |       |  0.49

Nlocal:           5541 ave        5541 max        5541 min
Histogram: 1 0 0 0 0 0 0 0 0 0
Nghost:          33613 ave       33613 max       33613 min
Histogram: 1 0 0 0 0 0 0 0 0 0
Neighs:              0 ave           0 max           0 min
Histogram: 1 0 0 0 0 0 0 0 0 0

Total # of neighbors = 0
Ave neighs/atom = 0
Ave special neighs/atom = 2.4872767
Neighbor list builds = 2340
Dangerous builds = 1
System init for write_restart ...
PPPM initialization ...
  extracting TIP4P info from pair style
  using 12-bit tables for long-range coulomb
  G vector (1/distance) = 0.28512662
  grid = 50 50 50
  stencil order = 5
  estimated absolute RMS force accuracy = 0.00038934319
  estimated relative force accuracy = 1.1724955e-06
  using double precision FFTW3
  3d grid and FFT values/proc = 185193 125000


---------------------------------------------------------------------
      Device Time Info (average): 
---------------------------------------------------------------------
Data Transfer:   2.7525 s.
Neighbor copy:   0.6378 s.
Neighbor build:  2.6173 s.
Force calc:      21.7927 s.
Device Overhead: 29.4139 s.
CPU Neighbor:    2.3534 s.
CPU Cast/Pack:   5.5079 s.
CPU Driver_Time: 1.0258 s.
CPU Idle_Time:   0.3820 s.
Average split:   1.0000.
Max Mem / Proc:  207.45 MB.
Prefetch mode:   None.
Vector width:    32.
Lanes / atom:    8.
Pair block:      256.
Neigh block:     128.
Neigh mode:      Hybrid (binning on host) with subgroup support
---------------------------------------------------------------------


--------------------------------------------------------------------------
- Using acceleration for lj/cut/tip4p/long/gpu:
-  with 1 proc(s) per device.
-  with 5 thread(s) per proc.
-  Horizontal vector operations: ENABLED
-  Shared memory system: No
--------------------------------------------------------------------------
Device 0: Quadro RTX 6000, 72 CUs, 20/23 GB, 1.8 GHZ (Mixed Precision)
--------------------------------------------------------------------------

Initializing Device and compiling on process 0...Done.
Initializing Device 0 on core 0...Done.

Generated 0 of 3 mixed pair_coeff terms from geometric mixing rule
NVT complete. Temperature: 303.460125952108 K (target: 300K)
úì Checkpoint 1 PASSED: Density = 0.891366525253082 g/cm≥

===== STAGE 1.5: Pre-Equilibration at 100 atm (50 ps, GPU) =====
üîß CRITICAL FIX: Reducing initial pressure before main ramp
Objective: Equilibrate volume at moderate pressure to prevent PPPM artifacts

Why this is needed:
  - NVT creates high pressure (~800 atm) in fixed volume
  - Direct ramp from 800Üí1 atm caused 169k atm spike (PPPM grid change)
  - Pre-equilibrating at 100 atm reduces initial pressure safely
  - Main ramp (100Üí1 atm) will then cause only ~5% box expansion
PPPM initialization ...
  extracting TIP4P info from pair style
  using 12-bit tables for long-range coulomb
  G vector (1/distance) = 0.28512662
  grid = 50 50 50
  stencil order = 5
  estimated absolute RMS force accuracy = 0.00038934319
  estimated relative force accuracy = 1.1724955e-06
  using double precision FFTW3
  3d grid and FFT values/proc = 185193 125000

--------------------------------------------------------------------------
- Using acceleration for lj/cut/tip4p/long/gpu:
-  with 1 proc(s) per device.
-  with 5 thread(s) per proc.
-  Horizontal vector operations: ENABLED
-  Shared memory system: No
--------------------------------------------------------------------------
Device 0: Quadro RTX 6000, 72 CUs, 20/23 GB, 1.8 GHZ (Mixed Precision)
--------------------------------------------------------------------------

Initializing Device and compiling on process 0...Done.
Initializing Device 0 on core 0...Done.

Generated 0 of 3 mixed pair_coeff terms from geometric mixing rule
Setting up Verlet run ...
  Unit style    : real
  Current step  : 25010
  Time step     : 2
Per MPI rank memory allocation (min/avg/max) = 51.29 | 51.29 | 51.29 Mbytes
   Step          Temp          Press          Volume         PotEng         KinEng         TotEng        Density    
     25010   303.46013     -1863.1317      64000         -21540.842      3394.8024     -18146.04       0.89136653   
     26000   301.02396     -579.15111      61317.92      -21689.112      3367.5491     -18321.562      0.93035539   
     27000   299.85398      266.6997       59160.355     -21777.909      3354.4605     -18423.449      0.96428525   
     28000   301.75465     -50.071473      57735.353     -21927.017      3375.7232     -18551.294      0.98808537   
     29000   305.80894      294.70394      56571.66      -22039.015      3421.0785     -18617.937      1.0084105    
     30000   301.03524     -577.41475      55502.499     -21871.803      3367.6753     -18504.127      1.0278358    
     31000   295.81058     -107.67883      54595.825     -21973.131      3309.2271     -18663.904      1.0449051    
     32000   303.53479      92.592691      54299.855     -21964.369      3395.6377     -18568.732      1.0506006    
     33000   295.49554     -326.07757      53500.854     -21985.566      3305.7027     -18679.863      1.0662906    
     34000   298.76423      304.08801      53080.364     -22115.94       3342.2694     -18773.671      1.0747375    
     35000   294.35859      43.355932      53161.213     -22091.968      3292.9836     -18798.985      1.073103     
     36000   308.35798      627.8162       53081.51      -22011.354      3449.5946     -18561.76       1.0747143    
     37000   303.62647      278.47327      53342.316     -22085.646      3396.6633     -18688.983      1.0694597    
     38000   294.94954     -221.26973      53197.421     -22219.493      3299.5947     -18919.898      1.0723726    
     39000   300.71858      503.9068       53062.538     -21968.013      3364.1328     -18603.88       1.0750985    
     40000   295.78614      562.41883      53134.091     -22071.337      3308.9537     -18762.384      1.0736508    
     41000   300.90818      848.59321      52966.683     -22100.293      3366.2538     -18734.039      1.0770442    
     42000   299.96229      715.50767      52998.947     -22055.299      3355.6722     -18699.627      1.0763885    
     43000   299.80922     -511.62967      53587.716     -22002.695      3353.9597     -18648.735      1.0645622    
     44000   296.66668     -35.743861      53131.451     -22229.675      3318.8042     -18910.871      1.0737041    
     45000   299.05705     -206.81199      53136.116     -21962.058      3345.5453     -18616.513      1.0736099    
     46000   303.74967      672.03012      53243.601     -21979.626      3398.0415     -18581.584      1.0714425    
     47000   297.12244     -96.926875      52893.853     -22076.972      3323.9028     -18753.069      1.0785272    
     48000   306.82627      708.34262      53250.078     -22074.376      3432.4593     -18641.916      1.0713122    
     49000   298.20216     -634.32064      53434.155     -22003.995      3335.9816     -18668.013      1.0676216    
     50000   300.06135     -291.26243      53588.472     -22177.646      3356.7804     -18820.865      1.0645472    
     50010   298.84633      129.4737       53584.633     -22148.958      3343.1879     -18805.77       1.0646235    
Loop time of 1048.16 on 5 procs for 25000 steps with 5541 atoms

Performance: 4.122 ns/day, 5.823 hours/ns, 23.851 timesteps/s, 132.160 katom-step/s
347.5% CPU use with 1 MPI tasks x 5 OpenMP threads

MPI task timing breakdown:
Section |  min time  |  avg time  |  max time  |%varavg| %total
---------------------------------------------------------------
Pair    | 41.598     | 41.598     | 41.598     |   0.0 |  3.97
Bond    | 0.44955    | 0.44955    | 0.44955    |   0.0 |  0.04
Kspace  | 552.45     | 552.45     | 552.45     |   0.0 | 52.71
Neigh   | 0.058387   | 0.058387   | 0.058387   |   0.0 |  0.01
Comm    | 11.16      | 11.16      | 11.16      |   0.0 |  1.06
Output  | 0.015812   | 0.015812   | 0.015812   |   0.0 |  0.00
Modify  | 437.88     | 437.88     | 437.88     |   0.0 | 41.78
Other   |            | 4.545      |            |       |  0.43

Nlocal:           5541 ave        5541 max        5541 min
Histogram: 1 0 0 0 0 0 0 0 0 0
Nghost:          35875 ave       35875 max       35875 min
Histogram: 1 0 0 0 0 0 0 0 0 0
Neighs:              0 ave           0 max           0 min
Histogram: 1 0 0 0 0 0 0 0 0 0

Total # of neighbors = 0
Ave neighs/atom = 0
Ave special neighs/atom = 2.4872767
Neighbor list builds = 2315
Dangerous builds = 0
System init for write_restart ...
PPPM initialization ...
  extracting TIP4P info from pair style
  using 12-bit tables for long-range coulomb
  G vector (1/distance) = 0.28854963
  grid = 50 50 50
  stencil order = 5
  estimated absolute RMS force accuracy = 0.0003257832
  estimated relative force accuracy = 9.8108643e-07
  using double precision FFTW3
  3d grid and FFT values/proc = 205379 125000


---------------------------------------------------------------------
      Device Time Info (average): 
---------------------------------------------------------------------
Data Transfer:   3.2392 s.
Neighbor copy:   0.5768 s.
Neighbor build:  4.4422 s.
Force calc:      87.9492 s.
Device Overhead: 0.7740 s.
CPU Neighbor:    1.8734 s.
CPU Cast/Pack:   8.1530 s.
CPU Driver_Time: 0.5905 s.
CPU Idle_Time:   0.3222 s.
Average split:   1.0000.
Max Mem / Proc:  235.95 MB.
Prefetch mode:   None.
Vector width:    32.
Lanes / atom:    8.
Pair block:      256.
Neigh block:     128.
Neigh mode:      Hybrid (binning on host) with subgroup support
---------------------------------------------------------------------


--------------------------------------------------------------------------
- Using acceleration for lj/cut/tip4p/long/gpu:
-  with 1 proc(s) per device.
-  with 5 thread(s) per proc.
-  Horizontal vector operations: ENABLED
-  Shared memory system: No
--------------------------------------------------------------------------
Device 0: Quadro RTX 6000, 72 CUs, 20/23 GB, 1.8 GHZ (Mixed Precision)
--------------------------------------------------------------------------

Initializing Device and compiling on process 0...Done.
Initializing Device 0 on core 0...Done.

Generated 0 of 3 mixed pair_coeff terms from geometric mixing rule
System init for write_data ...
PPPM initialization ...
  extracting TIP4P info from pair style
  using 12-bit tables for long-range coulomb
  G vector (1/distance) = 0.28854963
  grid = 50 50 50
  stencil order = 5
  estimated absolute RMS force accuracy = 0.0003257832
  estimated relative force accuracy = 9.8108643e-07
  using double precision FFTW3
  3d grid and FFT values/proc = 205379 125000

--------------------------------------------------------------------------
- Using acceleration for lj/cut/tip4p/long/gpu:
-  with 1 proc(s) per device.
-  with 5 thread(s) per proc.
-  Horizontal vector operations: ENABLED
-  Shared memory system: No
--------------------------------------------------------------------------
Device 0: Quadro RTX 6000, 72 CUs, 20/23 GB, 1.8 GHZ (Mixed Precision)
--------------------------------------------------------------------------

Initializing Device and compiling on process 0...Done.
Initializing Device 0 on core 0...Done.

Generated 0 of 3 mixed pair_coeff terms from geometric mixing rule
WARNING: Not all mixed pair coeffs generated from mixing. Use write_data with 'pair ij' option to store all pair coeffs. (src/write_data.cpp:364)

Pre-equilibration complete:
  Density:  1.06462346969457 g/cm≥
  Pressure: 129.473696352766 atm
  Volume:   53584.6327270649 Ö≥
úì Checkpoint 2 PASSED: System stable at 100 atm

===== STAGE 2: Gentle Pressure Ramp (100 ps, GPU) =====
Ramping pressure from 100 atm Üí 1 atm with drag damping

COMPARISON TO FAILED VERSION:
  OLD: 50 atm Üí 1 atm, no pre-equil Üí 169,712 atm spike at step 51k
  NEW: 100 atm Üí 1 atm, with pre-equil Üí should be smooth (< 500 atm max)
PPPM initialization ...
  extracting TIP4P info from pair style
  using 12-bit tables for long-range coulomb
  G vector (1/distance) = 0.28854963
  grid = 50 50 50
  stencil order = 5
  estimated absolute RMS force accuracy = 0.0003257832
  estimated relative force accuracy = 9.8108643e-07
  using double precision FFTW3
  3d grid and FFT values/proc = 205379 125000

--------------------------------------------------------------------------
- Using acceleration for lj/cut/tip4p/long/gpu:
-  with 1 proc(s) per device.
-  with 5 thread(s) per proc.
-  Horizontal vector operations: ENABLED
-  Shared memory system: No
--------------------------------------------------------------------------
Device 0: Quadro RTX 6000, 72 CUs, 20/23 GB, 1.8 GHZ (Mixed Precision)
--------------------------------------------------------------------------

Initializing Device and compiling on process 0...Done.
Initializing Device 0 on core 0...Done.

Generated 0 of 3 mixed pair_coeff terms from geometric mixing rule
Setting up Verlet run ...
  Unit style    : real
  Current step  : 50010
  Time step     : 2
Per MPI rank memory allocation (min/avg/max) = 52.14 | 52.14 | 52.14 Mbytes
   Step          Temp          Press          Volume         PotEng         KinEng         TotEng        Density    
     50010   298.84633      126.13344      53584.633     -22148.906      3343.1879     -18805.718      1.0646235    
     50500   302.50827      295.96552      53366.184     -22125.455      3384.154      -18741.301      1.0689814    
     51000   299.27967     -417.6107       53267.275     -22026.3        3348.0357     -18678.264      1.0709663    
     51500   301.7109      -186.67448      53406.558     -22053.138      3375.2339     -18677.904      1.0681733    
     52000   305.0188       847.60531      53448.019     -22026.726      3412.2392     -18614.486      1.0673446    
     52500   301.93983      118.62918      53344.517     -21976.608      3377.7948     -18598.813      1.0694156    
     53000   307.86629      536.26354      53148.513     -22098.729      3444.0941     -18654.635      1.0733594    
     53500   303.06331     -631.06217      53281.948     -22114.006      3390.3633     -18723.642      1.0706714    
     54000   300.37853      523.42213      53170.025     -22072.151      3360.3286     -18711.822      1.0729252    
     54500   306.72273     -328.45983      53258.203     -22137.74       3431.3011     -18706.439      1.0711488    
     55000   299.77765      147.28239      53408.205     -22051.885      3353.6066     -18698.279      1.0681403    
     55500   300.73591      824.56322      53464.608     -22114.962      3364.3266     -18750.635      1.0670135    
     56000   295.60537      142.08238      53450.572     -21940.135      3306.9314     -18633.203      1.0672937    
     56500   299.35765      235.50635      53333.957     -22035.408      3348.908      -18686.5        1.0696273    
     57000   303.5873       392.3912       53081.543     -22099.396      3396.2251     -18703.171      1.0747136    
     57500   298.75396     -397.32022      53498.156     -22069.225      3342.1546     -18727.07       1.0663444    
     58000   297.31922      174.37457      53304.099     -22067          3326.1042     -18740.896      1.0702265    
     58500   302.26215     -259.6203       53344.539     -22087.861      3381.4007     -18706.461      1.0694151    
     59000   298.60832      535.06662      53301.292     -22068.575      3340.5253     -18728.05       1.0702828    
     59500   302.38481     -424.22646      53255.764     -22100.56       3382.7729     -18717.787      1.0711978    
     60000   298.0716       43.4288        53472.261     -22031.325      3334.521      -18696.804      1.0668608    
     60500   298.60001     -40.885393      53352.802     -22017.579      3340.4324     -18677.147      1.0692495    
     61000   297.76548     -869.82099      53240.228     -22002.818      3331.0965     -18671.721      1.0715104    
     61500   301.52718      143.52362      53455.937     -22025.859      3373.1786     -18652.68       1.0671866    
     62000   296.25705     -3.193825       53602.053     -21984.305      3314.2217     -18670.083      1.0642775    
     62500   300.58647      105.69825      53473.95      -21985.503      3362.6548     -18622.848      1.0668271    
     63000   293.97369      282.70162      53370.324     -21944.456      3288.6778     -18655.778      1.0688985    
     63500   303.36994      552.56455      53611.758     -22042.926      3393.7935     -18649.133      1.0640848    
     64000   303.12082      475.11812      53883.076     -22062.006      3391.0066     -18670.999      1.0587268    
     64500   296.22647     -31.670919      53713.534     -22005.392      3313.8797     -18691.512      1.0620686    
     65000   303.2369      -137.57275      53292.201     -22031.748      3392.3052     -18639.443      1.0704654    
     65500   298.49962      15.179052      53379.671     -22005.231      3339.3093     -18665.922      1.0687113    
     66000   297.75069     -48.724031      53506.245     -21966.707      3330.931      -18635.776      1.0661832    
     66500   301.86892      215.24477      53418.19      -22087.038      3377.0016     -18710.037      1.0679407    
     67000   296.32859      425.76684      52927.19      -22076.164      3315.0221     -18761.142      1.0778478    
     67500   294.86194      479.74218      52991.196     -22078.061      3298.6147     -18779.447      1.076546     
     68000   300.10233      366.11202      53135.34      -22098.9        3357.2388     -18741.662      1.0736255    
     68500   296.77713      471.88087      53376.141     -22030.4        3320.0399     -18710.36       1.068782     
     69000   299.95683      587.63097      53458.443     -22054.503      3355.6111     -18698.892      1.0671365    
     69500   297.74237     -672.51904      53705.375     -22002.619      3330.8379     -18671.782      1.06223      
     70000   304.16403     -138.07735      53308.399     -22077.586      3402.677      -18674.909      1.0701401    
     70500   303.97228      909.00435      53295.54      -22131.313      3400.5318     -18730.781      1.0703983    
     71000   295.52686      672.43126      53287.12      -22002.62       3306.0531     -18696.567      1.0705675    
     71500   301.77634      135.12445      53370.424     -22080.08       3375.9659     -18704.114      1.0688965    
     72000   300.67449      646.56019      53365.372     -22072.334      3363.6396     -18708.694      1.0689977    
     72500   298.55294      247.64232      53551.171     -22009.337      3339.9058     -18669.431      1.0652887    
     73000   300.16578      73.51261       53416.17      -22012.378      3357.9486     -18654.429      1.0679811    
     73500   295.96254     -252.06333      53551.011     -21998.271      3310.9271     -18687.344      1.0652919    
     74000   298.40215     -545.60189      53359.842     -22043.49       3338.2189     -18705.271      1.0691084    
     74500   302.4026      -721.372        53235.71      -22035.687      3382.9719     -18652.716      1.0716013    
     75000   308.64931      98.232417      53173.406     -22125.611      3452.8537     -18672.757      1.0728569    
     75500   309.06156     -758.05648      53402.124     -22173.031      3457.4655     -18715.565      1.068262     
     76000   301.28945     -517.50255      53485.283     -22112.998      3370.5191     -18742.479      1.066601     
     76500   295.60617      198.01356      53568.363     -21992.944      3306.9404     -18686.003      1.0649468    
     77000   296.19058      544.53721      53813.436     -22003.394      3313.4781     -18689.916      1.0600969    
     77500   303.86303     -222.45671      53866.226     -22120.028      3399.3097     -18720.719      1.059058     
     78000   299.88551     -788.07217      53705.433     -22086.535      3354.8132     -18731.722      1.0622288    
     78500   299.23801     -62.292062      53698.8       -22062.446      3347.5696     -18714.876      1.06236      
     79000   292.96732      251.07655      53549.876     -21983.777      3277.4196     -18706.357      1.0653145    
     79500   303.41682     -726.20011      53513.975     -22104.36       3394.318      -18710.042      1.0660292    
     80000   299.85476      315.9186       53222.11      -22032.337      3354.4692     -18677.868      1.0718752    
     80500   298.6003      -80.406222      53094.639     -22049.449      3340.4356     -18709.013      1.0744486    
     81000   301.07686     -439.9199       53034.003     -22053.961      3368.1408     -18685.821      1.075677     
     81500   298.54206     -325.65058      53027.737     -21992.8        3339.7841     -18653.016      1.0758041    
     82000   297.65932     -281.59424      53136.67      -21972.852      3329.9089     -18642.943      1.0735987    
     82500   301.83157      276.8235       53025.168     -22003.977      3376.5838     -18627.393      1.0758562    
     83000   299.84588     -62.91514       53327.943     -22042.546      3354.3699     -18688.176      1.0697479    
     83500   300.99545      276.27568      53112.369     -22023.571      3367.2301     -18656.341      1.0740899    
     84000   302.33725      1467.4923      53459.484     -22072.692      3382.2408     -18690.451      1.0671158    
     84500   294.70602      622.00617      53716.716     -21947.238      3296.8704     -18650.367      1.0620057    
     85000   295.37925     -646.87541      53489.238     -22029.351      3304.4018     -18724.949      1.0665222    
     85500   299.99368      70.92744       53306.892     -22026.043      3356.0233     -18670.02       1.0701704    
     86000   305.06687     -204.13999      53612.071     -22124.247      3412.777      -18711.47       1.0640786    
     86500   302.96781      328.99229      53443.728     -22107.181      3389.2949     -18717.886      1.0674304    
     87000   301.89304     -1.0381071      53423.849     -22114.516      3377.2714     -18737.245      1.0678276    
     87500   300.15306      276.05516      53427.541     -22098.409      3357.8063     -18740.603      1.0677537    
     88000   295.97447     -217.13898      53976.647     -22025.571      3311.0605     -18714.51       1.0568915    
     88500   298.18796      743.84525      53604.212     -22028.69       3335.8228     -18692.867      1.0642346    
     89000   298.64812     -51.04094       53622.737     -22060.902      3340.9706     -18719.931      1.063867     
     89500   308.67823      81.265345      53370.82      -22122.373      3453.1772     -18669.196      1.0688885    
     90000   303.48228     -468.35537      53343.722     -22027.29       3395.0503     -18632.24       1.0694315    
     90500   301.90647     -161.21639      53411.312     -22038.05       3377.4216     -18660.629      1.0680782    
     91000   306.45112     -343.7465       53114.603     -22117.483      3428.2626     -18689.22       1.0740447    
     91500   296.90866      122.30878      53455.168     -22005.021      3321.5113     -18683.51       1.0672019    
     92000   298.16311      244.27536      53403.278     -21985.248      3335.5448     -18649.703      1.0682389    
     92500   296.59474      532.82712      53035.773     -21930.966      3317.9995     -18612.967      1.0756411    
     93000   301.07294      597.79536      52997.031     -22055.148      3368.097      -18687.051      1.0764274    
     93500   308.16076      330.53342      53062.203     -22134.422      3447.3883     -18687.034      1.0751053    
     94000   301.39923     -46.159649      53087.223     -22056.548      3371.7472     -18684.801      1.0745986    
     94500   301.23664      414.24722      53231.22      -22047.578      3369.9283     -18677.65       1.0716917    
     95000   296.92169      532.07903      53249.259     -21994.323      3321.657      -18672.666      1.0713287    
     95500   301.65854     -2.730956       53086.523     -22045.326      3374.6481     -18670.678      1.0746128    
     96000   300.59326      183.1515       53051.718     -22039.059      3362.7308     -18676.328      1.0753178    
     96500   305.6314       116.28314      53301.114     -22104.605      3419.0924     -18685.513      1.0702864    
     97000   302.18803      332.92393      53711.942     -22055.318      3380.5715     -18674.747      1.0621001    
     97500   300.02789      222.65013      53669.808     -22057.245      3356.4061     -18700.839      1.0629339    
     98000   296.06423      553.0473       53680.618     -22052.42       3312.0646     -18740.355      1.0627198    
     98500   299.92215      0.57474147     53698.644     -22081.618      3355.2231     -18726.394      1.0623631    
     99000   300.1904       297.92866      53608.143     -22033.962      3358.224      -18675.738      1.0641566    
     99500   297.27348      933.44758      53875.908     -21978.304      3325.5925     -18652.711      1.0588677    
    100000   301.97691     -79.78844       54002.314     -21992.989      3378.2097     -18614.779      1.0563891    
    100010   297.61896      376.12387      54000.757     -21942.11       3329.4574     -18612.652      1.0564196    
Loop time of 2128.38 on 5 procs for 50000 steps with 5541 atoms

Performance: 4.059 ns/day, 5.912 hours/ns, 23.492 timesteps/s, 130.170 katom-step/s
347.4% CPU use with 1 MPI tasks x 5 OpenMP threads

MPI task timing breakdown:
Section |  min time  |  avg time  |  max time  |%varavg| %total
---------------------------------------------------------------
Pair    | 85.542     | 85.542     | 85.542     |   0.0 |  4.02
Bond    | 0.86236    | 0.86236    | 0.86236    |   0.0 |  0.04
Kspace  | 1141.8     | 1141.8     | 1141.8     |   0.0 | 53.65
Neigh   | 0.12022    | 0.12022    | 0.12022    |   0.0 |  0.01
Comm    | 22.627     | 22.627     | 22.627     |   0.0 |  1.06
Output  | 0.057611   | 0.057611   | 0.057611   |   0.0 |  0.00
Modify  | 868.2      | 868.2      | 868.2      |   0.0 | 40.79
Other   |            | 9.148      |            |       |  0.43

Nlocal:           5541 ave        5541 max        5541 min
Histogram: 1 0 0 0 0 0 0 0 0 0
Nghost:          35732 ave       35732 max       35732 min
Histogram: 1 0 0 0 0 0 0 0 0 0
Neighs:              0 ave           0 max           0 min
Histogram: 1 0 0 0 0 0 0 0 0 0

Total # of neighbors = 0
Ave neighs/atom = 0
Ave special neighs/atom = 2.4872767
Neighbor list builds = 4634
Dangerous builds = 0
System init for write_restart ...
PPPM initialization ...
  extracting TIP4P info from pair style
  using 12-bit tables for long-range coulomb
  G vector (1/distance) = 0.28841336
  grid = 50 50 50
  stencil order = 5
  estimated absolute RMS force accuracy = 0.0003281889
  estimated relative force accuracy = 9.8833112e-07
  using double precision FFTW3
  3d grid and FFT values/proc = 205379 125000


---------------------------------------------------------------------
      Device Time Info (average): 
---------------------------------------------------------------------
Data Transfer:   6.5203 s.
Neighbor copy:   1.1612 s.
Neighbor build:  9.4189 s.
Force calc:      182.8109 s.
Device Overhead: 1.4667 s.
CPU Neighbor:    3.6069 s.
CPU Cast/Pack:   15.9164 s.
CPU Driver_Time: 1.3146 s.
CPU Idle_Time:   0.6416 s.
Average split:   1.0000.
Max Mem / Proc:  126.55 MB.
Prefetch mode:   None.
Vector width:    32.
Lanes / atom:    8.
Pair block:      256.
Neigh block:     128.
Neigh mode:      Hybrid (binning on host) with subgroup support
---------------------------------------------------------------------


--------------------------------------------------------------------------
- Using acceleration for lj/cut/tip4p/long/gpu:
-  with 1 proc(s) per device.
-  with 5 thread(s) per proc.
-  Horizontal vector operations: ENABLED
-  Shared memory system: No
--------------------------------------------------------------------------
Device 0: Quadro RTX 6000, 72 CUs, 20/23 GB, 1.8 GHZ (Mixed Precision)
--------------------------------------------------------------------------

Initializing Device and compiling on process 0...Done.
Initializing Device 0 on core 0...Done.

Generated 0 of 3 mixed pair_coeff terms from geometric mixing rule
System init for write_data ...
PPPM initialization ...
  extracting TIP4P info from pair style
  using 12-bit tables for long-range coulomb
  G vector (1/distance) = 0.28841336
  grid = 50 50 50
  stencil order = 5
  estimated absolute RMS force accuracy = 0.0003281889
  estimated relative force accuracy = 9.8833112e-07
  using double precision FFTW3
  3d grid and FFT values/proc = 205379 125000

--------------------------------------------------------------------------
- Using acceleration for lj/cut/tip4p/long/gpu:
-  with 1 proc(s) per device.
-  with 5 thread(s) per proc.
-  Horizontal vector operations: ENABLED
-  Shared memory system: No
--------------------------------------------------------------------------
Device 0: Quadro RTX 6000, 72 CUs, 20/23 GB, 1.8 GHZ (Mixed Precision)
--------------------------------------------------------------------------

Initializing Device and compiling on process 0...Done.
Initializing Device 0 on core 0...Done.

Generated 0 of 3 mixed pair_coeff terms from geometric mixing rule
WARNING: Not all mixed pair coeffs generated from mixing. Use write_data with 'pair ij' option to store all pair coeffs. (src/write_data.cpp:364)

Pressure ramp complete:
  Density:  1.05641958901706 g/cm≥
  Pressure: 376.12386505653 atm
  Volume:   54000.7570943255 Ö≥
  Box size: 37.7978081402943 Ö
úì Checkpoint 3 PASSED: Pressure ramp successful, liquid phase maintained

===== STAGE 3: NPT Equilibration (1000 ps, GPU) =====
Equilibrating at 300K, 1 atm with improved pressure control

Strategy:
  Phase 1 (400 ps): Higher damping for gentle pressure equilibration
  Phase 2 (600 ps): Standard damping for final equilibration

Phase 1: Gentle pressure equilibration (400 ps, pdamp=5000)...
PPPM initialization ...
  extracting TIP4P info from pair style
  using 12-bit tables for long-range coulomb
  G vector (1/distance) = 0.28841336
  grid = 50 50 50
  stencil order = 5
  estimated absolute RMS force accuracy = 0.0003281889
  estimated relative force accuracy = 9.8833112e-07
  using double precision FFTW3
  3d grid and FFT values/proc = 205379 125000

--------------------------------------------------------------------------
- Using acceleration for lj/cut/tip4p/long/gpu:
-  with 1 proc(s) per device.
-  with 5 thread(s) per proc.
-  Horizontal vector operations: ENABLED
-  Shared memory system: No
--------------------------------------------------------------------------
Device 0: Quadro RTX 6000, 72 CUs, 20/23 GB, 1.8 GHZ (Mixed Precision)
--------------------------------------------------------------------------

Initializing Device and compiling on process 0...Done.
Initializing Device 0 on core 0...Done.

Generated 0 of 3 mixed pair_coeff terms from geometric mixing rule
Setting up Verlet run ...
  Unit style    : real
  Current step  : 100010
  Time step     : 2
Per MPI rank memory allocation (min/avg/max) = 52.14 | 52.14 | 52.14 Mbytes
   Step          Temp          Press          Volume         PotEng         KinEng         TotEng        Density    
    100010   297.61896      374.41944      54000.757     -21942.148      3329.4574     -18612.69       1.0564196    
    101000   299.46272     -621.16868      53771.233     -22014.117      3350.0834     -18664.034      1.0609289    
    102000   302.68204     -156.85221      53273.311     -22035.31       3386.0979     -18649.212      1.070845     
    103000   298.83244      687.75928      53615.873     -22024.921      3343.0326     -18681.888      1.0640031    
    104000   296.03877     -87.59702       54185.098     -22033.771      3311.7798     -18721.992      1.0528256    
    105000   294.82413      208.57922      53893.483     -21982.875      3298.1917     -18684.683      1.0585224    
    106000   306.39953     -102.81125      53733.586     -22026.368      3427.6855     -18598.683      1.0616723    
    107000   304.77259      364.57111      53687.561     -22092.642      3409.4849     -18683.157      1.0625824    
    108000   304.75581      546.14785      53522.498     -21950.042      3409.2972     -18540.745      1.0658594    
    109000   292.28305      1049.386       53172.097     -22030.381      3269.7646     -18760.616      1.0728833    
    110000   298.24028     -391.92497      53361.465     -21952.411      3336.4081     -18616.003      1.0690759    
    111000   303.81368     -352.14999      53688.883     -22001.915      3398.7576     -18603.158      1.0625562    
    112000   296.68144      201.98398      53800.007     -22119.365      3318.9694     -18800.396      1.0603615    
    113000   298.67342      635.99339      54026.232     -22053.306      3341.2536     -18712.053      1.0559215    
    114000   298.02941     -566.76209      53694.625     -22063.537      3334.0491     -18729.488      1.0624426    
    115000   294.13509      787.57205      52778.318     -22007.107      3290.4834     -18716.624      1.0808881    
    116000   297.75058      159.42761      52796.886     -22054.059      3330.9298     -18723.129      1.080508     
    117000   297.16766     -340.80559      53780.575     -22098.24       3324.4087     -18773.831      1.0607447    
    118000   293.22888      909.63392      53082.483     -21986.629      3280.3457     -18706.284      1.0746946    
    119000   300.23891     -224.01199      53490.101     -21979.186      3358.7667     -18620.419      1.066505     
    120000   302.75332      284.17324      53374.55      -22058.344      3386.8954     -18671.449      1.0688138    
    121000   299.94168      364.68207      53219.289     -22019.266      3355.4416     -18663.824      1.071932     
    122000   299.42985     -454.23897      53752.924     -22048.098      3349.7158     -18698.383      1.0612903    
    123000   301.97476     -515.3354       53702.919     -22136.118      3378.1856     -18757.932      1.0622785    
    124000   299.63295     -338.75783      53469.016     -22133.528      3351.9879     -18781.54       1.0669255    
    125000   303.2542       673.73738      53624.421     -22050.073      3392.4987     -18657.574      1.0638335    
    126000   295.11744     -271.9925       53844.648     -22052.562      3301.4729     -18751.089      1.0594824    
    127000   298.85471     -229.12429      53237.263     -22013.16       3343.2817     -18669.879      1.0715701    
    128000   296.08306     -658.90306      53154.299     -21995.377      3312.2753     -18683.101      1.0732426    
    129000   304.09639     -650.06176      53825.817     -22056.272      3401.9203     -18654.352      1.0598531    
    130000   301.37974      774.66578      53216.008     -22024.209      3371.5292     -18652.68       1.0719981    
    131000   293.5292       175.51217      53199.461     -22060.239      3283.7053     -18776.534      1.0723315    
    132000   301.23476      373.45842      53606.21      -21995.608      3369.9072     -18625.701      1.0641949    
    133000   299.58254     -14.466557      53496.376     -22086.088      3351.4239     -18734.664      1.0663799    
    134000   304.709       -95.549514      53632.172     -22131.873      3408.7735     -18723.099      1.0636798    
    135000   296.86726      224.86483      53572.059     -22206.417      3321.0482     -18885.369      1.0648733    
    136000   305.74518      124.35469      53422.182     -22122.651      3420.3652     -18702.286      1.0678609    
    137000   299.16559      188.6631       53279.095     -22125.36       3346.7595     -18778.601      1.0707287    
    138000   305.72273      109.57787      53708.411     -21929.217      3420.1141     -18509.103      1.0621699    
    139000   306.5492       1280.8748      53796.889     -21939.403      3429.3598     -18510.044      1.060423     
    140000   302.28293      379.29734      53751.673     -22079.236      3381.6331     -18697.603      1.061315     
    141000   295.35117      388.83104      53602.595     -21928.343      3304.0876     -18624.256      1.0642667    
    142000   308.5451      -62.094142      52621.873     -22129.378      3451.6879     -18677.69       1.0841016    
    143000   299.76065      126.77673      53264.068     -22095.406      3353.4164     -18741.99       1.0710308    
    144000   309.06194      147.9311       53816.843     -21957.799      3457.4698     -18500.329      1.0600298    
    145000   298.72888     -491.66283      53563.88      -22030.272      3341.8741     -18688.398      1.0650359    
    146000   298.87815      104.40446      53529.037     -21987.711      3343.5439     -18644.167      1.0657292    
    147000   301.90633      6.4643205      53561.906     -22086.592      3377.4201     -18709.172      1.0650752    
    148000   307.85754      912.8299       52959.546     -22021.713      3443.9962     -18577.717      1.0771893    
    149000   301.20338     -343.73206      53379.808     -22018.089      3369.5562     -18648.533      1.0687086    
    150000   301.78931     -837.49898      53641.704     -21972.017      3376.111      -18595.906      1.0634908    
    151000   298.66046      456.29185      53571.937     -22021.439      3341.1086     -18680.33       1.0648758    
    152000   299.89526      989.7418       53755.482     -21931.646      3354.9223     -18576.724      1.0612398    
    153000   296.50895     -242.02089      53556.728     -22009.27       3317.0397     -18692.23       1.0651782    
    154000   299.39844     -344.70991      53993.837     -22094.412      3349.3644     -18745.047      1.056555     
    155000   296.98314      116.72383      53679.827     -22151.187      3322.3445     -18828.842      1.0627355    
    156000   298.23842      705.1278       53618.072     -21999.26       3336.3873     -18662.872      1.0639595    
    157000   303.14395      145.55589      53964.373     -22165.077      3391.2653     -18773.812      1.0571318    
    158000   309.43738     -310.968        53650.649     -22024.707      3461.6698     -18563.037      1.0633135    
    159000   294.44815      609.42378      53349.584     -21953.625      3293.9856     -18659.64       1.069314     
    160000   293.19644     -153.67375      53751.593     -22040.455      3279.9827     -18760.472      1.0613166    
    161000   300.00696      614.81379      54248.883     -22031.39       3356.1719     -18675.218      1.0515877    
    162000   301.46084      84.285043      53877.158     -22110.695      3372.4364     -18738.258      1.0588431    
    163000   295.7027       736.59912      53150.866     -22098.472      3308.0202     -18790.452      1.0733119    
    164000   298.85664      7.3835508      52901.235     -22031.297      3343.3032     -18687.994      1.0783767    
    165000   297.06622      204.04863      53372.804     -22107.843      3323.2739     -18784.57       1.0688488    
    166000   295.27317     -232.28749      53543.151     -22161.123      3303.2151     -18857.908      1.0654483    
    167000   307.0181       569.7495       53056.843     -22028.455      3434.6054     -18593.849      1.075214     
    168000   307.62821     -157.43671      52678.122     -22055.585      3441.4306     -18614.154      1.082944     
    169000   298.24874     -587.51465      53923.278     -22016.909      3336.5028     -18680.406      1.0579375    
    170000   299.14174     -466.86138      53833.627     -22038.053      3346.4927     -18691.56       1.0596993    
    171000   302.02311      504.73855      53564.772     -22027.504      3378.7265     -18648.778      1.0650182    
    172000   297.53756     -595.83437      53107.44      -22102.727      3328.5468     -18774.181      1.0741896    
    173000   302.60997     -125.90263      53235.021     -21962.163      3385.2917     -18576.872      1.0716152    
    174000   300.28856      411.154        53504.941     -21957.617      3359.3222     -18598.295      1.0662091    
    175000   301.68227     -237.97744      53694.337     -21978.799      3374.9136     -18603.886      1.0624483    
    176000   300.20291     -807.48266      53791.041     -22121.687      3358.364      -18763.323      1.0605383    
    177000   309.05311     -272.14863      53449.318     -21996.58       3457.371      -18539.209      1.0673187    
    178000   296.77639      147.13806      52933.685     -22090.668      3320.0316     -18770.637      1.0777156    
    179000   293.63998     -580.80855      53600.699     -22010.608      3284.9446     -18725.664      1.0643044    
    180000   297.82046      187.13435      53592.609     -22137.441      3331.7116     -18805.729      1.064465     
    181000   301.06428     -261.38595      53203.485     -22075.009      3368.0002     -18707.009      1.0722504    
    182000   295.92279      222.74304      53336.761     -21988.585      3310.4824     -18678.103      1.0695711    
    183000   302.91094      272.19266      53161.367     -21916.763      3388.6587     -18528.104      1.0730999    
    184000   292.3073      -1202.3171      53263.526     -22040.421      3270.036      -18770.385      1.0710417    
    185000   299.1923      -288.46116      53597.08      -22024.737      3347.0583     -18677.679      1.0643762    
    186000   301.20271     -231.70987      53747.162     -21968.169      3369.5487     -18598.62       1.0614041    
    187000   300.77519      76.215016      53574.067     -21972.72       3364.7661     -18607.954      1.0648334    
    188000   296.26491     -499.35289      53585.433     -21946.333      3314.3096     -18632.023      1.0646076    
    189000   303.29955     -231.42141      53779.404     -21943.906      3393.0061     -18550.9        1.0607678    
    190000   299.53299     -790.73337      53735.15      -21936.942      3350.8696     -18586.072      1.0616414    
    191000   304.65263      80.139988      53063.645     -22090.137      3408.1429     -18681.994      1.0750761    
    192000   298.69747     -391.15009      53415.709     -22134.745      3341.5226     -18793.222      1.0679903    
    193000   305.25218      878.70921      53724.546     -21901.796      3414.8501     -18486.945      1.0618509    
    194000   295.85917      638.44763      53229.731     -22008.536      3309.7706     -18698.765      1.0717217    
    195000   296.70526      86.826416      53038.399     -22057.651      3319.2358     -18738.415      1.0755878    
    196000   304.08725     -664.55366      53675.383     -22016.951      3401.818      -18615.133      1.0628235    
    197000   297.51291     -129.93016      53280.643     -22048.4        3328.2711     -18720.129      1.0706976    
    198000   300.76743      498.40893      52926.124     -22076.381      3364.6793     -18711.701      1.0778696    
    199000   297.25102      134.73952      53506.606     -22052.651      3325.3412     -18727.31       1.066176     
    200000   297.94028      580.40319      53576.874     -22043.526      3333.052      -18710.474      1.0647776    
    201000   305.17968      221.94124      53461.588     -22076.509      3414.0391     -18662.47       1.0670738    
    202000   306.71069      419.109        53703.966     -22004.567      3431.1664     -18573.401      1.0622578    
    203000   296.27024     -444.74403      53806.575     -22087.944      3314.3693     -18773.575      1.0602321    
    204000   300.20633      949.46784      53596.04      -22099.602      3358.4022     -18741.2        1.0643969    
    205000   303.90241     -807.3029       53890.161     -21918.155      3399.7502     -18518.405      1.0585876    
    206000   296.73816      924.53699      53518.797     -21930.124      3319.6039     -18610.52       1.0659331    
    207000   297.12402     -961.95559      53372.237     -21989.005      3323.9205     -18665.084      1.0688602    
    208000   294.16252     -518.14231      53692.306     -22053.907      3290.7902     -18763.117      1.0624885    
    209000   293.78467     -474.0369       53969.568     -21950.588      3286.5632     -18664.025      1.0570301    
    210000   300.32707      149.67278      53263.831     -21954.267      3359.7529     -18594.514      1.0710356    
    211000   298.84547     -834.94931      53467.975     -22123.263      3343.1783     -18780.085      1.0669463    
    212000   305.67583      184.23522      53914.07      -22037.113      3419.5894     -18617.523      1.0581182    
    213000   306.06981      9.3224036      53650.242     -22055.199      3423.9969     -18631.202      1.0633215    
    214000   302.27897      108.48804      54004.919     -21972.735      3381.5888     -18591.146      1.0563382    
    215000   295.41925     -776.30486      53656.15      -22022.004      3304.8493     -18717.154      1.0632044    
    216000   294.25006      926.61104      53000.956     -22039.424      3291.7696     -18747.654      1.0763477    
    217000   306.80136      51.476397      53272.888     -22026.83       3432.1807     -18594.649      1.0708535    
    218000   297.06146      147.60896      53772.964     -21896.418      3323.2206     -18573.197      1.0608948    
    219000   303.44159     -144.205        53712.17      -22025.64       3394.595      -18631.045      1.0620956    
    220000   303.60771     -28.387383      53264.167     -22002.831      3396.4535     -18606.377      1.0710288    
    221000   303.96214     -481.16102      53339.716     -22022.143      3400.4185     -18621.724      1.0695118    
    222000   293.76392      378.12702      53485.276     -22131.914      3286.3311     -18845.583      1.0666012    
    223000   292.70583     -159.41428      54055.52      -22026.17       3274.4943     -18751.676      1.0553493    
    224000   300.03743     -17.563343      53273.017     -21993.746      3356.5128     -18637.233      1.0708509    
    225000   297.10648     -693.24771      53318.547     -21854.337      3323.7243     -18530.613      1.0699365    
    226000   291.78531      195.39286      53541.851     -22094.375      3264.1964     -18830.178      1.0654741    
    227000   294.60515      447.66955      53266.993     -21879.067      3295.742      -18583.325      1.070972     
    228000   299.30966     -511.28007      53164.547     -21992.076      3348.3713     -18643.705      1.0730357    
    229000   297.55416     -546.65161      53926.487     -22057.905      3328.7325     -18729.173      1.0578745    
    230000   300.35764     -350.7942       53702.221     -21953.63       3360.095      -18593.535      1.0622923    
    231000   300.35053      950.74644      52823.799     -21968.645      3360.0154     -18608.63       1.0799575    
    232000   306.98181     -535.12226      53530.26      -22049.826      3434.1994     -18615.626      1.0657049    
    233000   298.28456     -272.81245      53664.796     -21978.947      3336.9034     -18642.044      1.0630332    
    234000   293.54777     -441.57398      53365.43      -21898.778      3283.9131     -18614.865      1.0689965    
    235000   297.18423      655.28019      53140.433     -21957.829      3324.5941     -18633.235      1.0735226    
    236000   306.00245      185.38264      53481.946     -21940.005      3423.2434     -18516.762      1.0666676    
    237000   303.99218      437.19203      53468.51      -22015.259      3400.7545     -18614.505      1.0669356    
    238000   302.99898     -298.83696      53422.371     -21995.724      3389.6436     -18606.081      1.0678571    
    239000   303.45825     -330.03156      53020.229     -22007.761      3394.7814     -18612.98       1.0759565    
    240000   299.83523      25.648876      53394.491     -22055.328      3354.2508     -18701.077      1.0684147    
    241000   301.3319      -124.97655      53690.072     -22044.637      3370.9939     -18673.643      1.0625327    
    242000   302.93711     -1220.1845      53605.867     -22040.593      3388.9514     -18651.642      1.0642018    
    243000   298.71603     -364.24864      53376.536     -22044.778      3341.7303     -18703.047      1.0687741    
    244000   300.73021     -399.41636      52585.573     -22102.878      3364.2629     -18738.615      1.08485      
    245000   298.49731      308.57377      53257.751     -22060.259      3339.2835     -18720.975      1.0711578    
    246000   300.17455      222.15923      53304.531     -22164.314      3358.0467     -18806.267      1.0702178    
    247000   305.8921       1003.9894      53130.26      -21979.599      3422.0089     -18557.59       1.0737282    
    248000   297.6825       317.85828      53162.723     -22080.041      3330.1682     -18749.873      1.0730725    
    249000   295.529        482.95868      53436.181     -22021.865      3306.077      -18715.788      1.0675811    
    250000   300.06572      71.83901       54018.301     -22071.519      3356.8292     -18714.69       1.0560765    
    251000   297.68789     -517.96772      54317.475     -22077.986      3330.2285     -18747.757      1.0502598    
    252000   305.92075     -345.61011      53254.149     -22136.042      3422.3293     -18713.712      1.0712303    
    253000   301.27062     -815.83337      53165.098     -22073.927      3370.3085     -18703.618      1.0730246    
    254000   295.74022     -283.95016      53224.198     -22038.556      3308.44       -18730.116      1.0718331    
    255000   298.49222      2.9328241      53225.087     -22075.63       3339.2265     -18736.403      1.0718152    
    256000   290.94224     -99.028789      53862.443     -22071.58       3254.7651     -18816.814      1.0591324    
    257000   296.91472     -524.40056      53462.831     -22138.845      3321.5791     -18817.266      1.0670489    
    258000   299.8079      -1056.237       53343.973     -22151.509      3353.945      -18797.564      1.0694265    
    259000   300.27431     -209.24325      53392.372     -22089.375      3359.1628     -18730.212      1.0684571    
    260000   300.82857     -416.5566       53419.894     -22210.038      3365.3632     -18844.674      1.0679066    
    261000   295.31699      501.35483      53488.875     -22052.391      3303.7053     -18748.686      1.0665294    
    262000   299.17537     -23.246848      53308.508     -22004.589      3346.8689     -18657.72       1.0701379    
    263000   292.60997      171.54848      54037.152     -21876.116      3273.4219     -18602.694      1.0557081    
    264000   305.49026     -46.522929      53499.114     -21995.859      3417.5134     -18578.345      1.0663253    
    265000   305.79102     -170.08379      53121.711     -22158.748      3420.8781     -18737.87       1.073901     
    266000   300.96219     -212.86844      53416.217     -22162.067      3366.858      -18795.209      1.0679801    
    267000   296.20431     -163.66487      53335.001     -22108.533      3313.6317     -18794.902      1.0696064    
    268000   297.71487      294.15676      53636.875     -22217.648      3330.5303     -18887.117      1.0635865    
    269000   304.24331     -14.158134      53854.007     -21942.154      3403.5638     -18538.59       1.0592983    
    270000   303.32688      304.23837      53391.939     -21989.256      3393.3118     -18595.944      1.0684657    
    271000   296.69662      202.66257      53360.636     -21973.288      3319.1392     -18654.149      1.0690925    
    272000   298.06701     -45.986409      53091.084     -22076.479      3334.4697     -18742.01       1.0745205    
    273000   299.92825      335.38543      52763.091     -22097.891      3355.2914     -18742.6        1.0812001    
    274000   302.61724     -261.53085      53875.225     -22059.938      3385.373      -18674.565      1.0588811    
    275000   296.6223      -139.42725      53786.72      -22011.07       3318.3078     -18692.763      1.0606235    
    276000   300.76749     -131.66266      53736.573     -21913.255      3364.6799     -18548.575      1.0616132    
    277000   296.7265       936.67145      53215.916     -22087.166      3319.4734     -18767.692      1.0719999    
    278000   295.54376      206.02508      53472.568     -22033.441      3306.2421     -18727.199      1.0668547    
    279000   296.80859      615.66         53711.225     -22077.155      3320.3918     -18756.763      1.0621143    
    280000   295.78293      1189.9481      53023.955     -22029.651      3308.9178     -18720.733      1.0758808    
    281000   309.16241     -631.12407      53334.295     -22210.288      3458.5938     -18751.694      1.0696205    
    282000   307.56012      281.29803      53773.377     -22034          3440.669      -18593.331      1.0608866    
    283000   297.04082      33.188237      53294.952     -22055.229      3322.9898     -18732.24       1.0704102    
    284000   301.64923     -112.43938      53451.908     -21919.007      3374.5439     -18544.463      1.067267     
    285000   301.44034      499.65997      53416.134     -22043.859      3372.2071     -18671.651      1.0679818    
    286000   303.09795     -628.48366      53519.419     -22004.288      3390.7508     -18613.537      1.0659207    
    287000   297.3464      -604.68733      53373.186     -21937.862      3326.4083     -18611.453      1.0688411    
    288000   304.52946     -348.92733      53491.511     -22004.668      3406.765      -18597.903      1.0664768    
    289000   288.16213      674.86972      53585.323     -22062.224      3223.664      -18838.56       1.0646098    
    290000   306.38753     -41.456943      53575.145     -21912.716      3427.5512     -18485.165      1.064812     
    291000   296.42697     -138.85134      53630.372     -22056.004      3316.1226     -18739.882      1.0637155    
    292000   300.74339      576.54434      53737.793     -22047.082      3364.4103     -18682.671      1.0615891    
    293000   304.88417     -86.757077      53349.097     -21971.78       3410.7332     -18561.047      1.0693238    
    294000   296.2486       819.83596      53116.248     -22097.476      3314.1272     -18783.349      1.0740114    
    295000   299.17436      42.27181       53690.074     -21848.976      3346.8576     -18502.118      1.0625327    
    296000   292.24996     -276.08626      53936.632     -22081.998      3269.3945     -18812.604      1.0576756    
    297000   301.27799     -19.53296       53365.276     -22037.181      3370.3909     -18666.79       1.0689996    
    298000   297.81568      842.29202      53226.805     -22127.409      3331.6581     -18795.751      1.0717806    
    299000   301.62231      249.98654      53621.324     -21939.579      3374.2428     -18565.337      1.063895     
    300000   303.11309      800.9483       53506.929     -22121.602      3390.9201     -18730.682      1.0661695    
    300010   302.51349      520.43157      53503.006     -22123.382      3384.2124     -18739.17       1.0662477    
Loop time of 8556.31 on 5 procs for 200000 steps with 5541 atoms

Performance: 4.039 ns/day, 5.942 hours/ns, 23.375 timesteps/s, 129.518 katom-step/s
347.4% CPU use with 1 MPI tasks x 5 OpenMP threads

MPI task timing breakdown:
Section |  min time  |  avg time  |  max time  |%varavg| %total
---------------------------------------------------------------
Pair    | 342.44     | 342.44     | 342.44     |   0.0 |  4.00
Bond    | 3.3885     | 3.3885     | 3.3885     |   0.0 |  0.04
Kspace  | 4600.1     | 4600.1     | 4600.1     |   0.0 | 53.76
Neigh   | 0.48391    | 0.48391    | 0.48391    |   0.0 |  0.01
Comm    | 91.103     | 91.103     | 91.103     |   0.0 |  1.06
Output  | 0.87265    | 0.87265    | 0.87265    |   0.0 |  0.01
Modify  | 3481.4     | 3481.4     | 3481.4     |   0.0 | 40.69
Other   |            | 36.5       |            |       |  0.43

Nlocal:           5541 ave        5541 max        5541 min
Histogram: 1 0 0 0 0 0 0 0 0 0
Nghost:          35753 ave       35753 max       35753 min
Histogram: 1 0 0 0 0 0 0 0 0 0
Neighs:              0 ave           0 max           0 min
Histogram: 1 0 0 0 0 0 0 0 0 0

Total # of neighbors = 0
Ave neighs/atom = 0
Ave special neighs/atom = 2.4872767
Neighbor list builds = 18525
Dangerous builds = 0

Phase 1 complete:
  Density:  1.06624771684063 g/cm≥
  Pressure: 520.431566667335 atm

Phase 2: Final equilibration (600 ps, pdamp=2000)...
PPPM initialization ...
  extracting TIP4P info from pair style
  using 12-bit tables for long-range coulomb
  G vector (1/distance) = 0.28857647
  grid = 50 50 50
  stencil order = 5
  estimated absolute RMS force accuracy = 0.00032531133
  estimated relative force accuracy = 9.7966542e-07
  using double precision FFTW3
  3d grid and FFT values/proc = 205379 125000


---------------------------------------------------------------------
      Device Time Info (average): 
---------------------------------------------------------------------
Data Transfer:   26.1104 s.
Neighbor copy:   4.6441 s.
Neighbor build:  38.5959 s.
Force calc:      727.3555 s.
Device Overhead: 42.3983 s.
CPU Neighbor:    14.4958 s.
CPU Cast/Pack:   63.5559 s.
CPU Driver_Time: 5.5753 s.
CPU Idle_Time:   2.6074 s.
Average split:   1.0000.
Max Mem / Proc:  266.35 MB.
Prefetch mode:   None.
Vector width:    32.
Lanes / atom:    8.
Pair block:      256.
Neigh block:     128.
Neigh mode:      Hybrid (binning on host) with subgroup support
---------------------------------------------------------------------


--------------------------------------------------------------------------
- Using acceleration for lj/cut/tip4p/long/gpu:
-  with 1 proc(s) per device.
-  with 5 thread(s) per proc.
-  Horizontal vector operations: ENABLED
-  Shared memory system: No
--------------------------------------------------------------------------
Device 0: Quadro RTX 6000, 72 CUs, 20/23 GB, 1.8 GHZ (Mixed Precision)
--------------------------------------------------------------------------

Initializing Device and compiling on process 0...Done.
Initializing Device 0 on core 0...Done.

Generated 0 of 3 mixed pair_coeff terms from geometric mixing rule
Setting up Verlet run ...
  Unit style    : real
  Current step  : 300010
  Time step     : 2
Per MPI rank memory allocation (min/avg/max) = 54.69 | 54.69 | 54.69 Mbytes
   Step          Temp          Press          Volume         PotEng         KinEng         TotEng        Density    
    300010   302.51349      516.40481      53503.006     -22123.384      3384.2124     -18739.172      1.0662477    
    301000   301.23849     -103.26808      53500.202     -22112.665      3369.949      -18742.716      1.0663036    
    302000   291.5336      -582.43758      53439.342     -22142.846      3261.3806     -18881.465      1.067518     
    303000   302.04489      21.971585      52921.233     -22019.078      3378.9701     -18640.108      1.0779692    
    304000   297.13863      158.70897      53619.959     -21941.781      3324.084      -18617.697      1.0639221    
    305000   302.42981     -329.81552      52795.889     -22044.881      3383.2763     -18661.604      1.0805284    
    306000   298.49043     -231.0987       53594.324     -22003.105      3339.2065     -18663.899      1.064431     
    307000   300.91965      265.48892      53077.781     -21973.28       3366.3822     -18606.898      1.0747898    
    308000   299.25852     -424.31666      53343.644     -22089.042      3347.7991     -18741.243      1.0694331    
    309000   291.373        757.08756      53926.39      -21919.118      3259.584      -18659.534      1.0578764    
    310000   299.16162     -53.106426      53255.66      -21950.486      3346.715      -18603.771      1.0711999    
    311000   299.46494     -143.80729      52942.108     -22056.764      3350.1083     -18706.655      1.0775441    
    312000   301.30682     -343.41537      53860.471     -21969.267      3370.7134     -18598.553      1.0591712    
    313000   300.2523       666.21614      53696.048     -22120.335      3358.9166     -18761.419      1.0624145    
    314000   292.58302     -96.524677      53383.812     -22058.735      3273.1204     -18785.615      1.0686284    
    315000   298.71884     -146.19904      53645.329     -21924.962      3341.7618     -18583.2        1.0634189    
    316000   293.38541      231.71245      53605.509     -21970.928      3282.0968     -18688.831      1.0642089    
    317000   298.17745      391.48812      53868.294     -21979.488      3335.7052     -18643.783      1.0590173    
    318000   293.0188       161.39874      53554.859     -22016.488      3277.9955     -18738.492      1.0652153    
    319000   308.63269     -263.28155      53301.854     -22091.447      3452.6678     -18638.779      1.0702715    
    320000   305.67908     -96.773637      53965.877     -22018.899      3419.6257     -18599.273      1.0571024    
    321000   296.23364      273.72772      53371.66      -22019.311      3313.9599     -18705.352      1.0688717    
    322000   292.85376      578.86191      54089.816     -21860.597      3276.1492     -18584.448      1.0546802    
    323000   300.48502     -340.43174      53588.699     -22087.167      3361.52       -18725.647      1.0645427    
    324000   299.7194      -1327.3602      53972.588     -21900.205      3352.9549     -18547.25       1.0569709    
    325000   303.52748     -91.88361       53429.441     -21884.599      3395.5559     -18489.043      1.0677158    
    326000   299.36585      466.42769      53396.582     -22078.55       3348.9998     -18729.55       1.0683728    
    327000   301.6039      -284.57338      53259.911     -22119.616      3374.0368     -18745.58       1.0711144    
    328000   292.65362     -214.06839      53363.448     -21958.024      3273.9102     -18684.114      1.0690362    
    329000   296.84415      312.75077      53161.663     -22140.449      3320.7896     -18819.659      1.0730939    
    330000   298.29156      482.28285      53333.852     -22072.527      3336.9817     -18735.546      1.0696294    
    331000   303.79973      12.24234       53575.407     -22026.996      3398.6016     -18628.394      1.0648068    
    332000   291.74492      77.711962      52825.596     -22076.84       3263.7446     -18813.095      1.0799208    
    333000   302.21751     -311.8161       53387.007     -21965.506      3380.9012     -18584.605      1.0685645    
    334000   294.9272       213.78885      53393.432     -22038.707      3299.3447     -18739.362      1.0684359    
    335000   300.64559     -860.30101      53623.335     -22025.184      3363.3163     -18661.867      1.0638551    
    336000   303.30893     -498.57102      53468.896     -21994.991      3393.111      -18601.88       1.0669279    
    337000   298.34293      66.401891      52957.956     -22046.255      3337.5565     -18708.699      1.0772217    
    338000   302.32373     -147.29181      53481.004     -22061.236      3382.0896     -18679.146      1.0666864    
    339000   303.37706     -54.701472      54075.044     -22097.592      3393.8732     -18703.718      1.0549683    
    340000   300.73893      586.34963      53936.696     -22003.18       3364.3604     -18638.82       1.0576743    
    341000   292.46993     -790.91502      53516.5       -21970.386      3271.8553     -18698.531      1.0659789    
    342000   296.52516      754.13521      53593.077     -22088.993      3317.2211     -18771.772      1.0644557    
    343000   299.59796      690.46454      53200.587     -22114.214      3351.5964     -18762.617      1.0723088    
    344000   305.33066      60.264482      53594.374     -21986.513      3415.728      -18570.785      1.06443      
    345000   302.81855     -435.38278      53220.035     -21929.361      3387.625      -18541.736      1.0719169    
    346000   310.85427     -633.06691      53437.173     -22077.634      3477.5205     -18600.114      1.0675613    
    347000   296.92141      430.80794      53649.3       -22040.72       3321.6539     -18719.066      1.0633402    
    348000   301.00389     -140.33897      53888.042     -22054.744      3367.3245     -18687.419      1.0586293    
    349000   298.05988     -568.95327      53464.214     -22094.167      3334.3899     -18759.777      1.0670214    
    350000   307.83352      438.12532      53363.196     -22094.279      3443.7275     -18650.552      1.0690412    
    351000   302.48456     -260.42462      53705.888     -21980.652      3383.8887     -18596.764      1.0622198    
    352000   293.54988     -117.14023      53083.743     -22128.719      3283.9367     -18844.782      1.0746691    
    353000   302.37309      319.98893      53693.249     -21978.683      3382.6418     -18596.041      1.0624698    
    354000   298.11327     -394.96081      53852.703     -22091.526      3334.9872     -18756.539      1.0593239    
    355000   294.45927     -196.07152      53820.375     -22049.756      3294.1099     -18755.646      1.0599602    
    356000   300.60885      428.6829       53167.393     -21984.458      3362.9052     -18621.553      1.0729783    
    357000   298.09344     -59.428859      53521.905     -21980.194      3334.7654     -18645.429      1.0658712    
    358000   295.23681     -366.16567      53684.66      -22041.526      3302.8083     -18738.717      1.0626398    
    359000   299.74968     -341.66957      53552.655     -21968.129      3353.2937     -18614.835      1.0652592    
    360000   302.68462     -686.18457      54019.749     -22025.09       3386.1268     -18638.963      1.0560482    
    361000   299.37359     -639.98083      53834.931     -21958.209      3349.0864     -18609.123      1.0596737    
    362000   298.92085      501.09505      53468.205     -21974.629      3344.0216     -18630.608      1.0669417    
    363000   302.1606      -23.753403      53512.952     -22061.904      3380.2647     -18681.639      1.0660495    
    364000   299.60808      540.92716      53300.095     -22058.44       3351.7096     -18706.73       1.0703069    
    365000   300.6137       670.05796      53503.241     -21995.333      3362.9595     -18632.374      1.066243     
    366000   299.14995      651.00371      53611.651     -21972.256      3346.5845     -18625.671      1.0640869    
    367000   303.01799      655.42804      53675.29      -21963.842      3389.8562     -18573.986      1.0628253    
    368000   296.50851      780.33612      53242.508     -22080.857      3317.0349     -18763.822      1.0714645    
    369000   307.60714     -171.17517      53219.12      -22162.529      3441.1949     -18721.335      1.0719354    
    370000   297.52693     -822.6222       53872.102     -21933.68       3328.4279     -18605.252      1.0589425    
    371000   298.9891      -401.46605      53753.178     -21862.271      3344.7851     -18517.485      1.0612853    
    372000   301.01917     -507.52617      53730.867     -22064.505      3367.4954     -18697.01       1.061726     
    373000   302.69046     -1059.6332      53641.265     -21981.67       3386.1922     -18595.478      1.0634995    
    374000   305.43778     -578.75607      53333.685     -21987.499      3416.9263     -18570.573      1.0696328    
    375000   297.19253      457.54156      53056.198     -22186.791      3324.6869     -18862.104      1.075227     
    376000   296.74112     -52.62817       53678.983     -22065.673      3319.637      -18746.036      1.0627522    
    377000   297.43797     -250.99691      53504.06      -22153.441      3327.4327     -18826.009      1.0662267    
    378000   303.53719      223.87737      53200.854     -22115.536      3395.6646     -18719.871      1.0723034    
    379000   299.84308     -243.20676      53629.916     -22059.553      3354.3386     -18705.215      1.0637245    
    380000   304.50872     -46.371648      53956.064     -22000.432      3406.533      -18593.899      1.0572946    
[...]
   1487000   302.35543     -104.39798      53698.17      -21986.396      3382.4442     -18603.952      1.0623725    
   1488000   302.17819      318.18948      53439.458     -21965.313      3380.4614     -18584.852      1.0675157    
   1489000   302.38125      541.96364      53840.35      -22021.997      3382.733      -18639.264      1.059567     
   1490000   296.35651     -57.63959       53897.694     -22085.451      3315.3343     -18770.116      1.0584397    
   1491000   302.19969     -312.73078      53047.767     -22112.094      3380.7019     -18731.392      1.0753979    
   1492000   299.12837      736.07965      53501.541     -22050.07       3346.3432     -18703.727      1.0662769    
   1493000   296.44078     -89.167014      53595.401     -21926.533      3316.2771     -18610.256      1.0644096    
   1494000   296.13678     -5.8856726      53214.352     -21878.977      3312.8763     -18566.1        1.0720314    
   1495000   300.04715      506.24702      53718.819     -22111.952      3356.6215     -18755.331      1.0619641    
   1496000   290.62417     -478.82225      53919.594     -22115.059      3251.2068     -18863.852      1.0580098    
   1497000   293.01838     -413.54303      53844.571     -22090.608      3277.9908     -18812.618      1.0594839    
   1498000   305.02515      164.31819      53951.289     -22120.075      3412.3103     -18707.765      1.0573882    
   1499000   300.85851      553.06312      53378.455     -21989.898      3365.6982     -18624.2        1.0687356    
   1500000   298.78009     -394.36174      53561.397     -22138.417      3342.4469     -18795.97       1.0650853    
   1501000   301.16931      310.11682      53273.741     -22142.263      3369.1751     -18773.088      1.0708363    
   1502000   300.0697      -159.33914      53109.921     -22088.454      3356.8738     -18731.58       1.0741394    
   1503000   299.1501      -664.55372      53208.239     -21970.827      3346.5863     -18624.24       1.0721546    
   1504000   297.926        534.28876      52847.619     -22022.134      3332.8922     -18689.242      1.0794707    
   1505000   298.12573      280.28041      53178.219     -21975.432      3335.1267     -18640.305      1.0727598    
   1506000   292.35271     -414.50051      53490.131     -21892.021      3270.544      -18621.477      1.0665044    
   1507000   302.73869      77.065968      52988.586     -22110.8        3386.7317     -18724.068      1.076599     
   1508000   302.48479      797.31945      53823.65      -22158.052      3383.8913     -18774.16       1.0598957    
   1509000   299.46716      39.230307      53696.44      -22126.578      3350.1331     -18776.445      1.0624067    
   1510000   298.57046      592.7873       53305.135     -22160.451      3340.1018     -18820.349      1.0702057    
   1511000   298.28981      721.48983      53349.099     -22102.431      3336.9621     -18765.469      1.0693237    
   1512000   300.45852      384.0926       53447.407     -22060.789      3361.2234     -18699.565      1.0673569    
   1513000   292.80314     -1002.3889      52859.743     -22058.255      3275.583      -18782.672      1.0792231    
   1514000   293.89937      97.282956      53574.814     -22020.727      3287.8464     -18732.88       1.0648186    
   1515000   293.44254     -699.45781      53615.56      -22087.256      3282.7359     -18804.521      1.0640093    
   1516000   300.23733     -679.21583      53484.628     -21886.71       3358.7491     -18527.961      1.0666141    
   1517000   299.40473      552.40766      53270.737     -22029.108      3349.4347     -18679.673      1.0708967    
   1518000   304.51245      394.03982      53541.651     -22078.317      3406.5747     -18671.742      1.0654781    
   1519000   302.78871      477.54745      54040.535     -22001.301      3387.2913     -18614.009      1.055642     
   1520000   301.17121     -3.9585328      53901.038     -21974.793      3369.1964     -18605.597      1.058374     
   1521000   298.90917      1040.1341      52853.81      -22049.018      3343.891      -18705.127      1.0793443    
   1522000   290.93275      1039.1862      52869.079     -22007.487      3254.6589     -18752.828      1.0790326    
   1523000   302.58231      500.34536      52756.726     -22135.929      3384.9822     -18750.946      1.0813305    
   1524000   293.72843     -833.69047      53285.62      -22142.145      3285.9341     -18856.211      1.0705976    
   1525000   300.81178     -42.750187      53521.42      -22004.89       3365.1754     -18639.715      1.0658809    
   1526000   304.33543     -478.68544      52941.813     -22168.444      3404.5944     -18763.85       1.0775501    
   1527000   305.96334      80.913799      52997.035     -21926.124      3422.8058     -18503.318      1.0764274    
   1528000   299.46915     -42.642978      52833.914     -22083.778      3350.1554     -18733.622      1.0797507    
   1529000   303.29569      707.93612      53379.729     -22007.553      3392.9628     -18614.59       1.0687101    
   1530000   296.91635     -89.715355      53311.082     -22184.087      3321.5973     -18862.489      1.0700863    
   1531000   300.30763     -231.40161      53393.545     -22036.256      3359.5355     -18676.72       1.0684336    
   1532000   302.43369      774.53663      53016.071     -22069.898      3383.3196     -18686.578      1.0760408    
   1533000   296.90429     -574.57301      53764.821     -21832.575      3321.4624     -18511.113      1.0610555    
   1534000   301.62254      51.485281      53550.461     -21922.39       3374.2454     -18548.145      1.0653028    
   1535000   298.62845     -625.68367      53679.054     -22071.588      3340.7505     -18730.838      1.0627508    
   1536000   301.44266      644.50653      53518.158     -22133.334      3372.233      -18761.101      1.0659458    
   1537000   299.7632       204.9401       53569.671     -21993.571      3353.4449     -18640.126      1.0649208    
   1538000   299.2053      -87.380839      53411.268     -21999.764      3347.2038     -18652.56       1.0680791    
   1539000   296.76369     -497.02715      52729.872     -21995.352      3319.8895     -18675.462      1.0818812    
   1540000   299.344        200.68059      53206.176     -22074.808      3348.7554     -18726.052      1.0721962    
   1541000   303.22135      745.41887      53025.438     -21999.62       3392.1312     -18607.488      1.0758508    
   1542000   297.1972       224.38425      52860.329     -22102.27       3324.7392     -18777.531      1.0792112    
   1543000   299.73962     -372.16704      53445.694     -21961.795      3353.1812     -18608.614      1.0673911    
   1544000   303.0387       344.51112      53274.787     -22136.949      3390.0879     -18746.861      1.0708153    
   1545000   297.66179      477.1544       53673.799     -22074.353      3329.9366     -18744.416      1.0628549    
   1546000   301.16726      729.90675      53737.666     -22125.293      3369.1522     -18756.141      1.0615917    
   1547000   302.13743     -91.137614      53767.307     -21955.801      3380.0055     -18575.796      1.0610064    
   1548000   297.70049     -27.383724      53379.674     -22043.053      3330.3695     -18712.683      1.0687112    
   1549000   297.69418      969.24784      53532.193     -22066.901      3330.2989     -18736.602      1.0656664    
   1550000   300.92        -374.27571      54091.485     -22146.076      3366.386      -18779.69       1.0546476    
   1551000   301.67131      113.94027      53441.733     -22039.951      3374.7909     -18665.16       1.0674702    
   1552000   298.2515      -368.60916      53231.472     -22079.662      3336.5336     -18743.129      1.0716866    
   1553000   301.19973     -73.94258       53786.275     -22015.183      3369.5154     -18645.667      1.0606322    
   1554000   304.51367      36.165526      53362.954     -22061.223      3406.5884     -18654.635      1.0690461    
   1555000   304.08306      93.355233      53324.471     -22109.67       3401.7711     -18707.899      1.0698176    
   1556000   292.8843      -1017.0612      53712.332     -21946.833      3276.4909     -18670.342      1.0620924    
   1557000   300.89799      366.09834      53178.808     -22006.8        3366.1399     -18640.66       1.072748     
   1558000   300.09951     -669.43114      54160.215     -21968.852      3357.2073     -18611.645      1.0533093    
   1559000   296.27364     -170.78183      53709.511     -21918.282      3314.4073     -18603.874      1.0621481    
   1560000   294.32121      563.72961      53668.648     -21926.434      3292.5656     -18633.868      1.0629569    
   1561000   295.78443      15.056381      53443.27      -22105.698      3308.9345     -18796.763      1.0674395    
   1562000   298.87841     -141.05739      53766.46      -21963.631      3343.5468     -18620.084      1.0610231    
   1563000   298.33643     -145.39572      53724.571     -22021.076      3337.4837     -18683.592      1.0618504    
   1564000   300.68093     -763.82742      52769.838     -22047.463      3363.7116     -18683.751      1.0810618    
   1565000   304.34285     -122.9525       53075.555     -22066.577      3404.6774     -18661.9        1.0748349    
   1566000   301.97799      982.2078       53427.442     -22049.211      3378.2218     -18670.989      1.0677557    
   1567000   296.71304      681.07669      52817.293     -21986.346      3319.3228     -18667.023      1.0800905    
   1568000   301.50691      29.017589      53528.693     -22053.971      3372.9518     -18681.02       1.065736     
   1569000   300.84414      371.22861      53102.049     -22104.932      3365.5374     -18739.395      1.0742986    
   1570000   296.54718      544.81692      53077.511     -22072.828      3317.4675     -18755.361      1.0747953    
   1571000   295.83652      104.89877      53499.956     -22086.978      3309.5172     -18777.461      1.0663085    
   1572000   310.54527     -125.75734      53376.891     -22108.69       3474.0638     -18634.626      1.068767     
   1573000   297.95345      119.97708      53591.735     -21886.062      3333.1993     -18552.863      1.0644824    
   1574000   297.17199      181.20164      53584.778     -22080.18       3324.4572     -18755.723      1.0646206    
   1575000   301.60393     -667.43708      54090.985     -22021.09       3374.0372     -18647.052      1.0546574    
   1576000   304.68449      105.59374      53531.926     -22099.02       3408.4993     -18690.52       1.0656717    
   1577000   303.01852     -21.946873      53318.424     -21903.576      3389.8621     -18513.714      1.0699389    
   1578000   302.42787      83.386996      53694.681     -22115.703      3383.2545     -18732.448      1.0624415    
   1579000   298.02895     -532.52107      53806.882     -21975.756      3334.044      -18641.712      1.0602261    
   1580000   295.06786      92.080457      53430.985     -22098.241      3300.9183     -18797.323      1.0676849    
   1581000   291.51715      256.70337      53491.267     -22015.179      3261.1965     -18753.982      1.0664817    
   1582000   298.46268      776.54842      54015.176     -22019.546      3338.8961     -18680.65       1.0561376    
   1583000   304.59162     -509.74742      53639.519     -21888.47       3407.4604     -18481.009      1.0635341    
   1584000   302.62033      515.9182       53589.03      -22018.146      3385.4076     -18632.739      1.0645361    
   1585000   300.75419      527.13356      53873.217     -22045.031      3364.5312     -18680.5        1.0589206    
   1586000   297.16816      251.3048       53562.15      -21909.915      3324.4143     -18585.501      1.0650703    
   1587000   293.52577     -1524.0162      53586.029     -21927.667      3283.6669     -18644          1.0645957    
   1588000   302.1979      -214.95839      53448.832     -22149.365      3380.6819     -18768.683      1.0673284    
   1589000   300.74659      211.48324      53552.459     -22109.56       3364.4461     -18745.114      1.0652631    
   1590000   297.08193      399.20123      53334.201     -22020.085      3323.4497     -18696.635      1.0696224    
   1591000   301.69459      176.62952      53494.943     -21970.453      3375.0513     -18595.402      1.0664084    
   1592000   300.03433      249.1157       53388.008     -22013.923      3356.478      -18657.445      1.0685444    
   1593000   301.93004      169.81907      53039.09      -22073.342      3377.6853     -18695.657      1.0755738    
   1594000   304.24622      44.820517      53510.817     -21958.274      3403.5964     -18554.678      1.0660921    
   1595000   299.59846     -80.828352      53711.532     -22009.992      3351.602      -18658.39       1.0621082    
   1596000   297.50103     -189.84532      53429.786     -21968.986      3328.1381     -18640.848      1.0677089    
   1597000   293.54086      1176.3322      53341.303     -22043.66       3283.8358     -18759.824      1.06948      
   1598000   292.71897     -1114.7547      53759.956     -22054.614      3274.6413     -18779.973      1.0611515    
   1599000   303.8742      -122.86724      53398.598     -22081.144      3399.4346     -18681.709      1.0683325    
   1600000   305.10337     -305.58431      53626.101     -22037.187      3413.1854     -18624.001      1.0638002    
   1600010   300.82974     -288.16214      53633.298     -21985.348      3365.3763     -18619.971      1.0636575    
Loop time of 43672.2 on 5 procs for 1000000 steps with 5541 atoms

Performance: 3.957 ns/day, 6.066 hours/ns, 22.898 timesteps/s, 126.877 katom-step/s
342.6% CPU use with 1 MPI tasks x 5 OpenMP threads

MPI task timing breakdown:
Section |  min time  |  avg time  |  max time  |%varavg| %total
---------------------------------------------------------------
Pair    | 1731.3     | 1731.3     | 1731.3     |   0.0 |  3.96
Bond    | 16.55      | 16.55      | 16.55      |   0.0 |  0.04
Kspace  | 22901      | 22901      | 22901      |   0.0 | 52.44
Neigh   | 37.782     | 37.782     | 37.782     |   0.0 |  0.09
Comm    | 454.11     | 454.11     | 454.11     |   0.0 |  1.04
Output  | 16.869     | 16.869     | 16.869     |   0.0 |  0.04
Modify  | 18332      | 18332      | 18332      |   0.0 | 41.98
Other   |            | 182.9      |            |       |  0.42

Nlocal:           5541 ave        5541 max        5541 min
Histogram: 1 0 0 0 0 0 0 0 0 0
Nghost:          35813 ave       35813 max       35813 min
Histogram: 1 0 0 0 0 0 0 0 0 0
Neighs:    4.82952e+06 ave 4.82952e+06 max 4.82952e+06 min
Histogram: 1 0 0 0 0 0 0 0 0 0

Total # of neighbors = 4829520
Ave neighs/atom = 871.59718
Ave special neighs/atom = 2.4872767
Neighbor list builds = 93127
Dangerous builds = 0

===== Saving Final Configuration =====
System init for write_data ...
PPPM initialization ...
  extracting TIP4P info from pair style
  using 12-bit tables for long-range coulomb
  G vector (1/distance) = 0.28853364
  grid = 50 50 50
  stencil order = 5
  estimated absolute RMS force accuracy = 0.00032606453
  estimated relative force accuracy = 9.8193363e-07
  using double precision FFTW3
  3d grid and FFT values/proc = 205379 125000


---------------------------------------------------------------------
      Device Time Info (average): 
---------------------------------------------------------------------
Data Transfer:   131.2607 s.
Neighbor copy:   23.5558 s.
Neighbor build:  197.1671 s.
Force calc:      3681.7415 s.
Device Overhead: 25.0688 s.
CPU Neighbor:    73.2541 s.
CPU Cast/Pack:   325.2799 s.
CPU Driver_Time: 21.9086 s.
CPU Idle_Time:   12.9123 s.
Average split:   1.0000.
Max Mem / Proc:  159.66 MB.
Prefetch mode:   None.
Vector width:    32.
Lanes / atom:    8.
Pair block:      256.
Neigh block:     128.
Neigh mode:      Hybrid (binning on host) with subgroup support
---------------------------------------------------------------------


--------------------------------------------------------------------------
- Using acceleration for lj/cut/tip4p/long/gpu:
-  with 1 proc(s) per device.
-  with 5 thread(s) per proc.
-  Horizontal vector operations: ENABLED
-  Shared memory system: No
--------------------------------------------------------------------------
Device 0: Quadro RTX 6000, 72 CUs, 21/23 GB, 1.8 GHZ (Mixed Precision)
--------------------------------------------------------------------------

Initializing Device and compiling on process 0...Done.
Initializing Device 0 on core 0...Done.

Generated 0 of 3 mixed pair_coeff terms from geometric mixing rule
WARNING: Not all mixed pair coeffs generated from mixing. Use write_data with 'pair ij' option to store all pair coeffs. (src/write_data.cpp:364)
System init for write_restart ...
PPPM initialization ...
  extracting TIP4P info from pair style
  using 12-bit tables for long-range coulomb
  G vector (1/distance) = 0.28853364
  grid = 50 50 50
  stencil order = 5
  estimated absolute RMS force accuracy = 0.00032606453
  estimated relative force accuracy = 9.8193363e-07
  using double precision FFTW3
  3d grid and FFT values/proc = 205379 125000

--------------------------------------------------------------------------
- Using acceleration for lj/cut/tip4p/long/gpu:
-  with 1 proc(s) per device.
-  with 5 thread(s) per proc.
-  Horizontal vector operations: ENABLED
-  Shared memory system: No
--------------------------------------------------------------------------
Device 0: Quadro RTX 6000, 72 CUs, 21/23 GB, 1.8 GHZ (Mixed Precision)
--------------------------------------------------------------------------

Initializing Device and compiling on process 0...Done.
Initializing Device 0 on core 0...Done.

Generated 0 of 3 mixed pair_coeff terms from geometric mixing rule

ïêïêïêïêïêïêïêïêïêïêïêïêïêïêïêïêïêïêïêïêïêïêïêïêïêïêïêïêïêïêïêïêïêïêïêïêïêïêïêïêïêïêïêïêïêïêïêïêïêïêïêïêïêïêïêïêïêïêïêïêïêïêïêïêïêïêïêïêïêïêïêïêïêïêïêïê
                     EQUILIBRATION COMPLETE - SUCCESS!
ïêïêïêïêïêïêïêïêïêïêïêïêïêïêïêïêïêïêïêïêïêïêïêïêïêïêïêïêïêïêïêïêïêïêïêïêïêïêïêïêïêïêïêïêïêïêïêïêïêïêïêïêïêïêïêïêïêïêïêïêïêïêïêïêïêïêïêïêïêïêïêïêïêïêïêïê

Simulation Summary:
  Total simulation time: 5.22 ns
    - NVT thermalization:     50 ps
    - Pre-equilibration:      50 ps  (NEW - prevents PPPM artifacts)
    - Pressure ramp:         100 ps  (EXTENDED and with drag damping)
    - NPT equilibration:    1000 ps
    - Production run:       4000 ps (4 ns)

Final Thermodynamic State:
  Temperature:    300.829739264598 K      (target: 300K)
  Pressure:       -288.162136588086 atm   (target: 1 atm)
  Density:        1.0636574688211 g/cm≥  (target: 0.95-1.05)
  Volume:         53633.2976436727 Ö≥
  Box size:       37.7118785712358 Ö    (expected: 58-63)

Final Energies:
  Potential:      -21985.347727083 kcal/mol
  Kinetic:        3365.37631195089 kcal/mol
  Total:          -18619.9714151321 kcal/mol


ERROR: Input line quote not followed by white-space (src/input.cpp:556)
Last input line: if "${final_dens} >= 0.85" then "if \"${final_dens} <= 1.15\" then \"jump SELF validation_success\" else \"jump SELF validation_warning\""
Cuda driver error 4 in call at file '/home/iiserk/sbs/solvent/mylammps_v2/lib/gpu/geryon/nvd_timer.h' in line 98.
Cuda driver error 4 in call at file '/home/iiserk/sbs/solvent/mylammps_v2/lib/gpu/geryon/nvd_timer.h' in line 99.
Cuda driver error 4 in call at file '/home/iiserk/sbs/solvent/mylammps_v2/lib/gpu/geryon/nvd_timer.h' in line 98.
Cuda driver error 4 in call at file '/home/iiserk/sbs/solvent/mylammps_v2/lib/gpu/geryon/nvd_timer.h' in line 99.
Cuda driver error 4 in call at file '/home/iiserk/sbs/solvent/mylammps_v2/lib/gpu/geryon/nvd_timer.h' in line 98.
Cuda driver error 4 in call at file '/home/iiserk/sbs/solvent/mylammps_v2/lib/gpu/geryon/nvd_timer.h' in line 99.
Cuda driver error 4 in call at file '/home/iiserk/sbs/solvent/mylammps_v2/lib/gpu/geryon/nvd_timer.h' in line 98.
Cuda driver error 4 in call at file '/home/iiserk/sbs/solvent/mylammps_v2/lib/gpu/geryon/nvd_timer.h' in line 99.
