LAMMPS (10 Sep 2025)
  using 5 OpenMP thread(s) per MPI task
Reading data file ...
  orthogonal box = (-20 -20 -20) to (20 20 20)
  1 by 1 by 1 MPI processor grid
  reading atoms ...
  5541 atoms
  reading velocities ...
  5541 velocities
  scanning bonds ...
  3 = max bonds/atom
  scanning angles ...
  1 = max angles/atom
  orthogonal box = (-20 -20 -20) to (20 20 20)
  1 by 1 by 1 MPI processor grid
  reading bonds ...
  3844 bonds
  reading angles ...
  1787 angles
Finding 1-2 1-3 1-4 neighbors ...
  special bond factors lj:    0        0        0       
  special bond factors coul:  0        0        0       
     3 = max # of 1-2 neighbors
     6 = max # of 1-3 neighbors
    18 = max # of 1-4 neighbors
    17 = max # of special neighbors
  special bonds CPU = 0.002 seconds
  read_data CPU = 0.063 seconds
180 atoms in group carbon
5361 atoms in group water
1787 atoms in group oxygen
3574 atoms in group hydrogen
60 atoms in group c60_1
60 atoms in group c60_2
60 atoms in group c60_3
WARNING: Detected non-ASCII characters in input. Will try to continue by replacing with ASCII equivalents where known. (src/input.cpp:479)
ïêïêïêïêïêïêïêïêïêïêïêïêïêïêïêïêïêïêïêïêïêïêïêïêïêïêïêïêïêïêïêïêïêïêïêïêïêïêïêïêïêïêïêïêïêïêïêïêïêïêïêïêïêïêïêïêïêïêïêïêïêïêïêïêïêïêïêïêïêïêïêïêïêïêïêïê
SYSTEM INFORMATION:
  Epsilon (O-C): 1 kcal/mol
  Random seed:   42
  Timestep:      2.0 fs (with SHAKE constraints)
  PPPM grid:     40ó40ó40 (LOCKED to prevent artifacts)
ïêïêïêïêïêïêïêïêïêïêïêïêïêïêïêïêïêïêïêïêïêïêïêïêïêïêïêïêïêïêïêïêïêïêïêïêïêïêïêïêïêïêïêïêïêïêïêïêïêïêïêïêïêïêïêïêïêïêïêïêïêïêïêïêïêïêïêïêïêïêïêïêïêïêïêïê

===== STAGE 0: Gentle Minimization (removing any overlaps) =====
Using CPU pair style for numerical stability during minimization


CITE-CITE-CITE-CITE-CITE-CITE-CITE-CITE-CITE-CITE-CITE-CITE-CITE

Your simulation uses code contributions which should be cited:
- GPU package (short-range, long-range and three-body potentials): doi:10.1016/j.cpc.2010.12.021, doi:10.1016/j.cpc.2011.10.012, doi:10.1016/j.cpc.2013.08.002, doi:10.1016/j.commatsci.2014.10.068, doi:10.1016/j.cpc.2016.10.020, doi:10.3233/APC200086
The log file lists these citations in BibTeX format.

CITE-CITE-CITE-CITE-CITE-CITE-CITE-CITE-CITE-CITE-CITE-CITE-CITE

Switching to 'neigh_modify every 1 delay 0 check yes' setting during minimization
PPPM initialization ...
  extracting TIP4P info from pair style
  using 12-bit tables for long-range coulomb
  G vector (1/distance) = 0.28512662
  grid = 50 50 50
  stencil order = 5
  estimated absolute RMS force accuracy = 0.00038934319
  estimated relative force accuracy = 1.1724955e-06
  using double precision FFTW3
  3d grid and FFT values/proc = 185193 125000

--------------------------------------------------------------------------
- Using acceleration for lj/cut/tip4p/long/gpu:
-  with 1 proc(s) per device.
-  with 5 thread(s) per proc.
-  Horizontal vector operations: ENABLED
-  Shared memory system: No
--------------------------------------------------------------------------
Device 0: Quadro RTX 6000, 72 CUs, 21/23 GB, 1.8 GHZ (Mixed Precision)
--------------------------------------------------------------------------

Initializing Device and compiling on process 0...Done.
Initializing Device 0 on core 0...Done.

Generated 0 of 3 mixed pair_coeff terms from geometric mixing rule
Setting up cg style minimization ...
  Unit style    : real
  Current step  : 0
Per MPI rank memory allocation (min/avg/max) = 51.83 | 51.83 | 51.83 Mbytes
   Step          Temp          Press          Volume         PotEng         KinEng         TotEng        Density    
         0   36.495381      27177.563      64000         -23254.423      602.67332     -22651.75       0.89136653   
        10   36.495381     -19536.093      64000         -142307.82      602.67332     -141705.15      0.89136653   
Loop time of 0.292976 on 5 procs for 10 steps with 5541 atoms

450.1% CPU use with 1 MPI tasks x 5 OpenMP threads

Minimization stats:
  Stopping criterion = max iterations
  Energy initial, next-to-last, final = 
     -23254.4232465214  -124721.201765305  -142307.824923454
  Force two-norm initial, final = 2152.6942 6846.3164
  Force max component initial, final = 49.704476 352.95214
  Final line search alpha, max atom move = 0.00038000947 0.13412515
  Iterations, force evaluations = 10 10

MPI task timing breakdown:
Section |  min time  |  avg time  |  max time  |%varavg| %total
---------------------------------------------------------------
Pair    | 0.0069244  | 0.0069244  | 0.0069244  |   0.0 |  2.36
Bond    | 0.0025554  | 0.0025554  | 0.0025554  |   0.0 |  0.87
Kspace  | 0.27649    | 0.27649    | 0.27649    |   0.0 | 94.37
Neigh   | 0          | 0          | 0          |   0.0 |  0.00
Comm    | 0.0035588  | 0.0035588  | 0.0035588  |   0.0 |  1.21
Output  | 0.00010627 | 0.00010627 | 0.00010627 |   0.0 |  0.04
Modify  | 1.55e-06   | 1.55e-06   | 1.55e-06   |   0.0 |  0.00
Other   |            | 0.003335   |            |       |  1.14

Nlocal:           5541 ave        5541 max        5541 min
Histogram: 1 0 0 0 0 0 0 0 0 0
Nghost:          33839 ave       33839 max       33839 min
Histogram: 1 0 0 0 0 0 0 0 0 0
Neighs:              0 ave           0 max           0 min
Histogram: 1 0 0 0 0 0 0 0 0 0

Total # of neighbors = 0
Ave neighs/atom = 0
Ave special neighs/atom = 2.4872767
Neighbor list builds = 0
Dangerous builds = 0
Minimization complete. PE = -142307.824923454 kcal/mol (was -23,217)

Applying SHAKE constraints...
Finding SHAKE clusters ...
       0 = # of size 2 clusters
       0 = # of size 3 clusters
       0 = # of size 4 clusters
    1787 = # of frozen angles
  find clusters CPU = 0.002 seconds
SHAKE constraint verification:
  Expected: ~2000 water molecules with constrained bonds and angles
  Check minimization output for cluster sizes

GPU Acceleration Status:
  úì Pair forces (LJ):      GPU (lj/cut/tip4p/long/gpu)
  úì Coulomb (PPPM):        CPU (pppm/tip4p) - GPU suffix not available
  úì Neighbor lists:        GPU (neigh yes)
  Üí Expected speedup:      2-3ó vs CPU-only version (pair forces only)

===== STAGE 1: NVT Thermalization (50 ps, GPU) =====
Objective: Reach 300K while maintaining initial density
PPPM initialization ...
  extracting TIP4P info from pair style
  using 12-bit tables for long-range coulomb
  G vector (1/distance) = 0.28512662
  grid = 50 50 50
  stencil order = 5
  estimated absolute RMS force accuracy = 0.00038934319
  estimated relative force accuracy = 1.1724955e-06
  using double precision FFTW3
  3d grid and FFT values/proc = 185193 125000


---------------------------------------------------------------------
      Device Time Info (average): 
---------------------------------------------------------------------
Data Transfer:   0.0013 s.
Neighbor copy:   0.0003 s.
Neighbor build:  0.0009 s.
Force calc:      0.0162 s.
Device Overhead: 0.0017 s.
CPU Neighbor:    0.0013 s.
CPU Cast/Pack:   0.0028 s.
CPU Driver_Time: 0.0005 s.
CPU Idle_Time:   0.0001 s.
Average split:   1.0000.
Max Mem / Proc:  98.37 MB.
Prefetch mode:   None.
Vector width:    32.
Lanes / atom:    8.
Pair block:      256.
Neigh block:     128.
Neigh mode:      Hybrid (binning on host) with subgroup support
---------------------------------------------------------------------


--------------------------------------------------------------------------
- Using acceleration for lj/cut/tip4p/long/gpu:
-  with 1 proc(s) per device.
-  with 5 thread(s) per proc.
-  Horizontal vector operations: ENABLED
-  Shared memory system: No
--------------------------------------------------------------------------
Device 0: Quadro RTX 6000, 72 CUs, 20/23 GB, 1.8 GHZ (Mixed Precision)
--------------------------------------------------------------------------

Initializing Device and compiling on process 0...Done.
Initializing Device 0 on core 0...Done.

Generated 0 of 3 mixed pair_coeff terms from geometric mixing rule
Setting up Verlet run ...
  Unit style    : real
  Current step  : 10
  Time step     : 2
Per MPI rank memory allocation (min/avg/max) = 51.29 | 51.29 | 51.29 Mbytes
   Step          Temp          Press          Volume         PotEng         KinEng         TotEng        Density    
        10   300           -112344.12      64000         -142307.83      3356.094      -138951.73      0.89136653   
      1000   292.89089     -1643.9877      64000         -20948.116      3276.5645     -17671.551      0.89136653   
      2000   305.48393     -1171.9993      64000         -21435.783      3417.4427     -18018.34       0.89136653   
      3000   301.5331      -1585.1225      64000         -21754.803      3373.2448     -18381.558      0.89136653   
      4000   301.60899     -1249.6502      64000         -21898.614      3374.0938     -18524.52       0.89136653   
      5000   295.87166     -1559.164       64000         -21723.569      3309.9104     -18413.659      0.89136653   
      6000   298.73725     -935.52277      64000         -21682.413      3341.9677     -18340.445      0.89136653   
      7000   305.21778     -1355.0094      64000         -21597.731      3414.4652     -18183.266      0.89136653   
      8000   302.37721     -1461.5351      64000         -21732.504      3382.6878     -18349.816      0.89136653   
      9000   296.86886     -1051.2354      64000         -21878.983      3321.066      -18557.917      0.89136653   
     10000   297.87408     -1130.8574      64000         -21862.806      3332.3114     -18530.494      0.89136653   
     11000   305.17517     -1896.8622      64000         -21618.631      3413.9885     -18204.642      0.89136653   
     12000   296.8471      -1620.2313      64000         -21911.571      3320.8226     -18590.748      0.89136653   
     13000   298.06858     -471.02432      64000         -21688.906      3334.4873     -18354.418      0.89136653   
     14000   298.91891     -1289.0703      64000         -21734.419      3343.9998     -18390.419      0.89136653   
     15000   295.97699     -1569.3209      64000         -21747.455      3311.0887     -18436.367      0.89136653   
     16000   304.11817     -793.1272       64000         -21690.374      3402.1639     -18288.21       0.89136653   
     17000   299.03132     -1519.1832      64000         -21670.354      3345.2574     -18325.097      0.89136653   
     18000   299.23095     -794.92913      64000         -21788.115      3347.4907     -18440.625      0.89136653   
     19000   298.67696     -1380.0106      64000         -21653.688      3341.2932     -18312.395      0.89136653   
     20000   299.4469      -1238.8781      64000         -21886.593      3349.9065     -18536.687      0.89136653   
     21000   300.33257     -253.97718      64000         -21732.111      3359.8145     -18372.297      0.89136653   
     22000   296.84508     -695.02013      64000         -21767.738      3320.8        -18446.938      0.89136653   
     23000   307.87404     -959.41221      64000         -21722.985      3444.1807     -18278.804      0.89136653   
     24000   298.00772     -241.76263      64000         -21770.693      3333.8064     -18436.887      0.89136653   
     25000   305.42695     -1382.0299      64000         -21685.126      3416.8053     -18268.32       0.89136653   
     25010   298.1191      -1244.6805      64000         -21607.681      3335.0524     -18272.629      0.89136653   
Loop time of 793.045 on 5 procs for 25000 steps with 5541 atoms

Performance: 5.447 ns/day, 4.406 hours/ns, 31.524 timesteps/s, 174.675 katom-step/s
442.4% CPU use with 1 MPI tasks x 5 OpenMP threads

MPI task timing breakdown:
Section |  min time  |  avg time  |  max time  |%varavg| %total
---------------------------------------------------------------
Pair    | 25.567     | 25.567     | 25.567     |   0.0 |  3.22
Bond    | 0.26929    | 0.26929    | 0.26929    |   0.0 |  0.03
Kspace  | 727.49     | 727.49     | 727.49     |   0.0 | 91.73
Neigh   | 0.071145   | 0.071145   | 0.071145   |   0.0 |  0.01
Comm    | 11.445     | 11.445     | 11.445     |   0.0 |  1.44
Output  | 0.11016    | 0.11016    | 0.11016    |   0.0 |  0.01
Modify  | 24.536     | 24.536     | 24.536     |   0.0 |  3.09
Other   |            | 3.556      |            |       |  0.45

Nlocal:           5541 ave        5541 max        5541 min
Histogram: 1 0 0 0 0 0 0 0 0 0
Nghost:          33297 ave       33297 max       33297 min
Histogram: 1 0 0 0 0 0 0 0 0 0
Neighs:              0 ave           0 max           0 min
Histogram: 1 0 0 0 0 0 0 0 0 0

Total # of neighbors = 0
Ave neighs/atom = 0
Ave special neighs/atom = 2.4872767
Neighbor list builds = 2319
Dangerous builds = 1
System init for write_restart ...
PPPM initialization ...
  extracting TIP4P info from pair style
  using 12-bit tables for long-range coulomb
  G vector (1/distance) = 0.28512662
  grid = 50 50 50
  stencil order = 5
  estimated absolute RMS force accuracy = 0.00038934319
  estimated relative force accuracy = 1.1724955e-06
  using double precision FFTW3
  3d grid and FFT values/proc = 185193 125000


---------------------------------------------------------------------
      Device Time Info (average): 
---------------------------------------------------------------------
Data Transfer:   2.7248 s.
Neighbor copy:   0.6173 s.
Neighbor build:  2.9032 s.
Force calc:      23.5648 s.
Device Overhead: 0.7321 s.
CPU Neighbor:    2.3610 s.
CPU Cast/Pack:   6.3170 s.
CPU Driver_Time: 0.6531 s.
CPU Idle_Time:   0.3895 s.
Average split:   1.0000.
Max Mem / Proc:  97.97 MB.
Prefetch mode:   None.
Vector width:    32.
Lanes / atom:    8.
Pair block:      256.
Neigh block:     128.
Neigh mode:      Hybrid (binning on host) with subgroup support
---------------------------------------------------------------------


--------------------------------------------------------------------------
- Using acceleration for lj/cut/tip4p/long/gpu:
-  with 1 proc(s) per device.
-  with 5 thread(s) per proc.
-  Horizontal vector operations: ENABLED
-  Shared memory system: No
--------------------------------------------------------------------------
Device 0: Quadro RTX 6000, 72 CUs, 20/23 GB, 1.8 GHZ (Mixed Precision)
--------------------------------------------------------------------------

Initializing Device and compiling on process 0...Done.
Initializing Device 0 on core 0...Done.

Generated 0 of 3 mixed pair_coeff terms from geometric mixing rule
NVT complete. Temperature: 298.119096198506 K (target: 300K)
úì Checkpoint 1 PASSED: Density = 0.891366525253082 g/cm≥

===== STAGE 1.5: Pre-Equilibration at 100 atm (50 ps, GPU) =====
üîß CRITICAL FIX: Reducing initial pressure before main ramp
Objective: Equilibrate volume at moderate pressure to prevent PPPM artifacts

Why this is needed:
  - NVT creates high pressure (~800 atm) in fixed volume
  - Direct ramp from 800Üí1 atm caused 169k atm spike (PPPM grid change)
  - Pre-equilibrating at 100 atm reduces initial pressure safely
  - Main ramp (100Üí1 atm) will then cause only ~5% box expansion
PPPM initialization ...
  extracting TIP4P info from pair style
  using 12-bit tables for long-range coulomb
  G vector (1/distance) = 0.28512662
  grid = 50 50 50
  stencil order = 5
  estimated absolute RMS force accuracy = 0.00038934319
  estimated relative force accuracy = 1.1724955e-06
  using double precision FFTW3
  3d grid and FFT values/proc = 185193 125000

--------------------------------------------------------------------------
- Using acceleration for lj/cut/tip4p/long/gpu:
-  with 1 proc(s) per device.
-  with 5 thread(s) per proc.
-  Horizontal vector operations: ENABLED
-  Shared memory system: No
--------------------------------------------------------------------------
Device 0: Quadro RTX 6000, 72 CUs, 20/23 GB, 1.8 GHZ (Mixed Precision)
--------------------------------------------------------------------------

Initializing Device and compiling on process 0...Done.
Initializing Device 0 on core 0...Done.

Generated 0 of 3 mixed pair_coeff terms from geometric mixing rule
Setting up Verlet run ...
  Unit style    : real
  Current step  : 25010
  Time step     : 2
Per MPI rank memory allocation (min/avg/max) = 51.29 | 51.29 | 51.29 Mbytes
   Step          Temp          Press          Volume         PotEng         KinEng         TotEng        Density    
     25010   298.1191      -1244.5563      64000         -21607.681      3335.0524     -18272.629      0.89136653   
     26000   295.46087      233.99978      61412.41      -21885.411      3305.3148     -18580.096      0.92892394   
     27000   296.99264     -70.324488      59261.227     -21933.943      3322.4508     -18611.493      0.96264388   
     28000   305.01007      296.97675      57412.105     -21970.941      3412.1415     -18558.799      0.99364859   
     29000   302.67612     -52.989927      56362.96      -21975.587      3386.0318     -18589.555      1.0121445    
     30000   302.10274     -120.60511      55668.45      -22156.505      3379.6174     -18776.887      1.0247718    
     31000   301.45683      283.16738      54940.508     -22013.606      3372.3916     -18641.215      1.0383497    
     32000   301.65106     -399.20563      54320.557     -22122.566      3374.5644     -18748.002      1.0502002    
     33000   300.85634      663.94239      53757.634     -22142.02       3365.6739     -18776.346      1.0611973    
     34000   301.76123     -559.76673      53836.444     -22079.74       3375.7969     -18703.943      1.0596439    
     35000   305.16552     -73.008051      53028.055     -22216.144      3413.8806     -18802.263      1.0757977    
     36000   299.51485      514.48176      52924.747     -22251.478      3350.6667     -18900.811      1.0778976    
     37000   302.07024     -1136.57        53231.223     -22022.86       3379.2537     -18643.606      1.0716917    
     38000   301.55621     -56.163982      52776.999     -22238.676      3373.5033     -18865.172      1.0809152    
     39000   298.67568      606.2474       53218.242     -22248.245      3341.2789     -18906.966      1.0719531    
     40000   305.67989      59.649537      53503.774     -22111.558      3419.6348     -18691.923      1.0662324    
     41000   297.77176     -5.3244962      53314.282     -22078.297      3331.1668     -18747.13       1.070022     
     42000   302.01549      144.04327      52907.581     -22231.006      3378.6413     -18852.365      1.0782473    
     43000   303.40275      384.10292      52679.989     -22124.432      3394.1606     -18730.272      1.0829056    
     44000   302.54464      1017.6507      52795.483     -21965.814      3384.5609     -18581.253      1.0805367    
     45000   312.51769      841.52944      53040.423     -22032.512      3496.1292     -18536.383      1.0755468    
     46000   302.98373      41.309307      53233.661     -22120.111      3389.4729     -18730.638      1.0716426    
     47000   296.20098      656.73472      53029.327     -22069.564      3313.5945     -18755.97       1.0757719    
     48000   301.97498      67.997147      53010.59      -22106.877      3378.1881     -18728.689      1.0761521    
     49000   296.2386       25.878141      53543.32      -22224.099      3314.0153     -18910.084      1.0654449    
     50000   298.52581      208.40722      53383.173     -22119.164      3339.6023     -18779.561      1.0686412    
     50010   302.30585      178.45482      53373.233     -22167.631      3381.8896     -18785.741      1.0688402    
Loop time of 1123.06 on 5 procs for 25000 steps with 5541 atoms

Performance: 3.847 ns/day, 6.239 hours/ns, 22.261 timesteps/s, 123.347 katom-step/s
362.5% CPU use with 1 MPI tasks x 5 OpenMP threads

MPI task timing breakdown:
Section |  min time  |  avg time  |  max time  |%varavg| %total
---------------------------------------------------------------
Pair    | 43.745     | 43.745     | 43.745     |   0.0 |  3.90
Bond    | 0.41877    | 0.41877    | 0.41877    |   0.0 |  0.04
Kspace  | 641.41     | 641.41     | 641.41     |   0.0 | 57.11
Neigh   | 0.058704   | 0.058704   | 0.058704   |   0.0 |  0.01
Comm    | 11.208     | 11.208     | 11.208     |   0.0 |  1.00
Output  | 0.015752   | 0.015752   | 0.015752   |   0.0 |  0.00
Modify  | 421.67     | 421.67     | 421.67     |   0.0 | 37.55
Other   |            | 4.532      |            |       |  0.40

Nlocal:           5541 ave        5541 max        5541 min
Histogram: 1 0 0 0 0 0 0 0 0 0
Nghost:          35799 ave       35799 max       35799 min
Histogram: 1 0 0 0 0 0 0 0 0 0
Neighs:              0 ave           0 max           0 min
Histogram: 1 0 0 0 0 0 0 0 0 0

Total # of neighbors = 0
Ave neighs/atom = 0
Ave special neighs/atom = 2.4872767
Neighbor list builds = 2335
Dangerous builds = 0
System init for write_restart ...
PPPM initialization ...
  extracting TIP4P info from pair style
  using 12-bit tables for long-range coulomb
  G vector (1/distance) = 0.28861922
  grid = 50 50 50
  stencil order = 5
  estimated absolute RMS force accuracy = 0.00032456118
  estimated relative force accuracy = 9.7740635e-07
  using double precision FFTW3
  3d grid and FFT values/proc = 205379 125000


---------------------------------------------------------------------
      Device Time Info (average): 
---------------------------------------------------------------------
Data Transfer:   3.2285 s.
Neighbor copy:   0.5806 s.
Neighbor build:  5.4800 s.
Force calc:      91.2351 s.
Device Overhead: 14.0518 s.
CPU Neighbor:    2.0026 s.
CPU Cast/Pack:   8.8522 s.
CPU Driver_Time: 0.7128 s.
CPU Idle_Time:   0.3386 s.
Average split:   1.0000.
Max Mem / Proc:  223.85 MB.
Prefetch mode:   None.
Vector width:    32.
Lanes / atom:    8.
Pair block:      256.
Neigh block:     128.
Neigh mode:      Hybrid (binning on host) with subgroup support
---------------------------------------------------------------------


--------------------------------------------------------------------------
- Using acceleration for lj/cut/tip4p/long/gpu:
-  with 1 proc(s) per device.
-  with 5 thread(s) per proc.
-  Horizontal vector operations: ENABLED
-  Shared memory system: No
--------------------------------------------------------------------------
Device 0: Quadro RTX 6000, 72 CUs, 20/23 GB, 1.8 GHZ (Mixed Precision)
--------------------------------------------------------------------------

Initializing Device and compiling on process 0...Done.
Initializing Device 0 on core 0...Done.

Generated 0 of 3 mixed pair_coeff terms from geometric mixing rule
System init for write_data ...
PPPM initialization ...
  extracting TIP4P info from pair style
  using 12-bit tables for long-range coulomb
  G vector (1/distance) = 0.28861922
  grid = 50 50 50
  stencil order = 5
  estimated absolute RMS force accuracy = 0.00032456118
  estimated relative force accuracy = 9.7740635e-07
  using double precision FFTW3
  3d grid and FFT values/proc = 205379 125000

--------------------------------------------------------------------------
- Using acceleration for lj/cut/tip4p/long/gpu:
-  with 1 proc(s) per device.
-  with 5 thread(s) per proc.
-  Horizontal vector operations: ENABLED
-  Shared memory system: No
--------------------------------------------------------------------------
Device 0: Quadro RTX 6000, 72 CUs, 20/23 GB, 1.8 GHZ (Mixed Precision)
--------------------------------------------------------------------------

Initializing Device and compiling on process 0...Done.
Initializing Device 0 on core 0...Done.

Generated 0 of 3 mixed pair_coeff terms from geometric mixing rule
WARNING: Not all mixed pair coeffs generated from mixing. Use write_data with 'pair ij' option to store all pair coeffs. (src/write_data.cpp:364)

Pre-equilibration complete:
  Density:  1.06884020895977 g/cm≥
  Pressure: 178.454823308338 atm
  Volume:   53373.2330969451 Ö≥
úì Checkpoint 2 PASSED: System stable at 100 atm

===== STAGE 2: Gentle Pressure Ramp (100 ps, GPU) =====
Ramping pressure from 100 atm Üí 1 atm with drag damping

COMPARISON TO FAILED VERSION:
  OLD: 50 atm Üí 1 atm, no pre-equil Üí 169,712 atm spike at step 51k
  NEW: 100 atm Üí 1 atm, with pre-equil Üí should be smooth (< 500 atm max)
PPPM initialization ...
  extracting TIP4P info from pair style
  using 12-bit tables for long-range coulomb
  G vector (1/distance) = 0.28861922
  grid = 50 50 50
  stencil order = 5
  estimated absolute RMS force accuracy = 0.00032456118
  estimated relative force accuracy = 9.7740635e-07
  using double precision FFTW3
  3d grid and FFT values/proc = 205379 125000

--------------------------------------------------------------------------
- Using acceleration for lj/cut/tip4p/long/gpu:
-  with 1 proc(s) per device.
-  with 5 thread(s) per proc.
-  Horizontal vector operations: ENABLED
-  Shared memory system: No
--------------------------------------------------------------------------
Device 0: Quadro RTX 6000, 72 CUs, 20/23 GB, 1.8 GHZ (Mixed Precision)
--------------------------------------------------------------------------

Initializing Device and compiling on process 0...Done.
Initializing Device 0 on core 0...Done.

Generated 0 of 3 mixed pair_coeff terms from geometric mixing rule
Setting up Verlet run ...
  Unit style    : real
  Current step  : 50010
  Time step     : 2
Per MPI rank memory allocation (min/avg/max) = 52.14 | 52.14 | 52.14 Mbytes
   Step          Temp          Press          Volume         PotEng         KinEng         TotEng        Density    
     50010   302.30585      168.38181      53373.233     -22167.572      3381.8896     -18785.682      1.0688402    
     50500   295.29401      676.48797      53347.386     -22124.281      3303.4482     -18820.832      1.0693581    
     51000   296.75323     -451.50634      53404.252     -22167.254      3319.7725     -18847.482      1.0682194    
     51500   300.14385      477.02334      52998.87      -22218.749      3357.7033     -18861.045      1.0763901    
     52000   295.04083     -118.12101      53475.244     -22119.547      3300.6159     -18818.931      1.0668013    
     52500   300.23468      46.806832      53244.081     -22151.798      3358.7194     -18793.079      1.0714329    
     53000   303.12797      355.40037      53177.131     -22196.756      3391.0865     -18805.669      1.0727818    
     53500   298.91249      435.23867      53166.006     -22106.913      3343.9281     -18762.985      1.0730063    
     54000   295.86838     -410.39394      53133.094     -21992.624      3309.8737     -18682.75       1.0736709    
     54500   299.30767      1036.9716      53171.544     -22057.447      3348.3489     -18709.098      1.0728945    
     55000   297.07744     -590.04219      53108.057     -22065.545      3323.3994     -18742.145      1.0741771    
     55500   299.1163      -159.77543      53066.94      -22103.263      3346.2081     -18757.055      1.0750094    
     56000   291.76014     -90.677603      53043.017     -21988.967      3263.9149     -18725.053      1.0754942    
     56500   295.4699       160.27222      53011.222     -22069.586      3305.4159     -18764.17       1.0761393    
     57000   299.24537     -1013.0152      53257.833     -22135.042      3347.652      -18787.39       1.0711562    
     57500   300.17314     -227.80659      53080.506     -22161.543      3358.0309     -18803.512      1.0747346    
     58000   295.07158      1263.9824      53162.248     -22095.654      3300.9598     -18794.694      1.0730821    
     58500   293.25236      88.011191      53165.407     -22048.768      3280.6083     -18768.16       1.0730184    
     59000   296.89361      346.41751      53084.529     -22164.228      3321.3429     -18842.885      1.0746532    
     59500   292.03006      2.7969911      53482.823     -22157.706      3266.9345     -18890.772      1.0666501    
     60000   300.4629       60.896674      53252.313     -22229.587      3361.2725     -18868.314      1.0712672    
     60500   299.3916       605.93347      53323.481     -22169.411      3349.2879     -18820.123      1.0698375    
     61000   304.86804      40.427068      53614.26      -22210.15       3410.5527     -18799.597      1.0640352    
     61500   305.78155      556.48903      53190.666     -22228.976      3420.7722     -18808.204      1.0725088    
     62000   298.08361     -102.18081      53613.247     -22116.399      3334.6554     -18781.744      1.0640553    
     62500   299.13191      119.33249      53974.09      -22072.254      3346.3828     -18725.871      1.0569415    
     63000   299.52076     -8.786777       53737.176     -22154.513      3350.7328     -18803.78       1.0616013    
     63500   301.03964      88.104128      53136.41      -22161.267      3367.7244     -18793.543      1.0736039    
     64000   301.31574      35.415877      52902.923     -22165.835      3370.8132     -18795.022      1.0783423    
     64500   301.4822      -63.142192      53203.274     -22204.877      3372.6753     -18832.202      1.0722547    
     65000   303.14533      150.32456      53390.9       -22227.954      3391.2807     -18836.673      1.0684865    
     65500   300.76606     -134.27819      53287.226     -22126.559      3364.664      -18761.895      1.0705653    
     66000   299.69889      796.7595       53577.948     -22124.699      3352.7255     -18771.973      1.0647563    
     66500   298.93204      539.89026      53260.679     -22190.229      3344.1468     -18846.082      1.071099     
     67000   298.0035       1502.0308      53758.722     -22152.124      3333.7592     -18818.365      1.0611759    
     67500   293.42081      310.16295      53534.865     -22072.47       3282.4928     -18789.977      1.0656132    
     68000   298.34646     -313.27821      53255.474     -22105.434      3337.5959     -18767.838      1.0712036    
     68500   294.20529      299.54326      53085.157     -22135.007      3291.2687     -18843.739      1.0746405    
     69000   302.47649      79.003705      53097.243     -22203.089      3383.7984     -18819.291      1.0743959    
     69500   294.66056     -273.58233      53070.387     -22089.124      3296.3618     -18792.762      1.0749395    
     70000   300.80377     -180.48649      52892.869     -22174.309      3365.0858     -18809.224      1.0785472    
     70500   309.70552      109.31647      53087.227     -22240.034      3464.6695     -18775.365      1.0745986    
     71000   296.96702     -123.16815      53039.458     -22074.246      3322.1642     -18752.082      1.0755664    
     71500   301.11924     -0.093927007    53282.156     -22144.464      3368.6149     -18775.849      1.0706672    
     72000   302.96369      1030.2673      53545.569     -22164.195      3389.2488     -18774.946      1.0654002    
     72500   293.07061      775.31717      53431.614     -22063.735      3278.575      -18785.16       1.0676724    
     73000   304.80036     -409.28073      53306.706     -22193.172      3409.7956     -18783.377      1.0701741    
     73500   305.47551     -365.33664      53274.945     -22163.711      3417.3485     -18746.363      1.0708121    
     74000   299.93602      315.51391      53528.961     -22153.267      3355.3783     -18797.888      1.0657307    
     74500   303.12902     -1372.0516      53582.228     -22187.138      3391.0983     -18796.04       1.0646712    
     75000   303.87643      649.13981      53434.103     -22200.542      3399.4595     -18801.082      1.0676226    
     75500   304.13005      108.84324      53635.784     -22192.953      3402.2968     -18790.657      1.0636082    
     76000   296.77888     -5.7642378      53639.608     -22106.472      3320.0594     -18786.413      1.0635323    
     76500   297.95885      664.18828      53367.957     -22163.24       3333.2597     -18829.98       1.0689459    
     77000   297.26435     -5.322243       53256.906     -22121.285      3325.4904     -18795.795      1.0711748    
     77500   296.45343      401.07938      53666.277     -22107.064      3316.4186     -18790.646      1.0630038    
     78000   301.02166     -323.62797      53082.003     -22166.612      3367.5233     -18799.089      1.0747043    
     78500   300.16379     -140.89894      53305.721     -22170.924      3357.9263     -18812.998      1.0701939    
     79000   299.70658     -504.54543      53517.94      -22201.236      3352.8115     -18848.425      1.0659502    
     79500   298.04212      80.452831      53355.956     -22153.783      3334.1913     -18819.592      1.0691863    
     80000   295.41964      601.36189      53293.079     -22112.394      3304.8536     -18807.54       1.0704478    
     80500   293.94476     -148.67417      53457.875     -22119.802      3288.3542     -18831.448      1.0671479    
     81000   298.77103     -107.54701      53181.088     -22171.864      3342.3456     -18829.518      1.072702     
     81500   301.02491      393.79961      53320.151     -22154.461      3367.5597     -18786.901      1.0699043    
     82000   298.94034      239.58285      53288.712     -22114.592      3344.2397     -18770.352      1.0705355    
     82500   297.29097      495.41744      53115.76      -22083.094      3325.7882     -18757.305      1.0740213    
     83000   299.48599     -40.906723      53471.523     -22071.742      3350.3438     -18721.398      1.0668755    
     83500   298.47015      745.47103      53229.532     -22089.806      3338.9797     -18750.826      1.0717257    
     84000   298.54207      324.05232      53570.853     -22068.556      3339.7842     -18728.772      1.0648973    
     84500   300.63214     -43.997368      53736.527     -22129.857      3363.1657     -18766.691      1.0616142    
     85000   308.31765     -120.47017      53259.9       -22217.17       3449.1434     -18768.027      1.0711146    
     85500   293.21934     -70.440749      53294.568     -22100.107      3280.2389     -18819.868      1.0704179    
     86000   301.77185      241.42609      53267.951     -22222.002      3375.9157     -18846.086      1.0709527    
     86500   292.57844      728.90721      53471.637     -22099.618      3273.0692     -18826.549      1.0668732    
     87000   296.31887      139.51212      53366.402     -22122.388      3314.9134     -18807.474      1.068977     
     87500   297.68417      647.21977      53170.959     -22127.136      3330.1869     -18796.95       1.0729063    
     88000   300.40381     -79.596326      53339.897     -22120.695      3360.6115     -18760.084      1.0695082    
     88500   300.42615      813.29941      53320.19      -22155.427      3360.8613     -18794.565      1.0699035    
     89000   299.64566      501.79472      52993.108     -22120.337      3352.13       -18768.207      1.0765071    
     89500   303.90582      43.128347      53241.632     -22174.672      3399.7884     -18774.884      1.0714821    
     90000   300.90618      201.38084      53284.305     -22149.27       3366.2315     -18783.039      1.070624     
     90500   300.83748      117.57255      53581.555     -22135.412      3365.4629     -18769.949      1.0646846    
     91000   300.17742      88.63989       53398.873     -22117.684      3358.0788     -18759.606      1.068327     
     91500   300.31565      171.14918      53495.194     -22109.755      3359.6252     -18750.13       1.0664034    
     92000   297.59508     -140.51226      53433.426     -22114.498      3329.1903     -18785.307      1.0676361    
     92500   302.48088     -31.106022      52936.246     -22164.739      3383.8476     -18780.892      1.0776634    
     93000   301.83076     -1059.2534      53232.572     -22155.199      3376.5747     -18778.625      1.0716645    
     93500   303.88461     -486.54813      53318.468     -22177.192      3399.5511     -18777.641      1.069938     
     94000   303.3467      -125.14925      53340.187     -22137.281      3393.5335     -18743.748      1.0695024    
     94500   304.06689     -179.93683      52975.996     -22153.849      3401.5903     -18752.259      1.0768548    
     95000   301.34095     -594.97317      53057.554     -22143.429      3371.0952     -18772.334      1.0751995    
     95500   301.13197      97.034284      53252.501     -22201.283      3368.7574     -18832.526      1.0712635    
     96000   298.15411      496.93348      53321.196     -22136.17       3335.4441     -18800.726      1.0698833    
     96500   302.28171      8.7248241      53534.467     -22196.626      3381.6195     -18815.006      1.0656211    
     97000   296.55603     -653.75396      53370.465     -22131.107      3317.5664     -18813.541      1.0688956    
     97500   301.20781      198.28221      53263.648     -22185.178      3369.6057     -18815.573      1.0710393    
     98000   302.04879     -49.531325      53163.235     -22204.866      3379.0138     -18825.852      1.0730622    
     98500   292.64264     -581.76043      53355.131     -22091.182      3273.7874     -18817.395      1.0692028    
     99000   307.70225      313.17835      53048.831     -22263.19       3442.259      -18820.931      1.0753763    
     99500   297.61139      149.22267      53497.321     -22147.607      3329.3726     -18818.234      1.066361     
    100000   303.99055      215.7265       53174.496     -22135.438      3400.7363     -18734.702      1.072835     
    100010   299.77913      47.375295      53156.142     -22088.2        3353.6232     -18734.577      1.0732054    
Loop time of 2244.91 on 5 procs for 50000 steps with 5541 atoms

Performance: 3.849 ns/day, 6.236 hours/ns, 22.273 timesteps/s, 123.413 katom-step/s
360.3% CPU use with 1 MPI tasks x 5 OpenMP threads

MPI task timing breakdown:
Section |  min time  |  avg time  |  max time  |%varavg| %total
---------------------------------------------------------------
Pair    | 85.929     | 85.929     | 85.929     |   0.0 |  3.83
Bond    | 0.84606    | 0.84606    | 0.84606    |   0.0 |  0.04
Kspace  | 1288.3     | 1288.3     | 1288.3     |   0.0 | 57.39
Neigh   | 0.11729    | 0.11729    | 0.11729    |   0.0 |  0.01
Comm    | 22.544     | 22.544     | 22.544     |   0.0 |  1.00
Output  | 0.057074   | 0.057074   | 0.057074   |   0.0 |  0.00
Modify  | 837.97     | 837.97     | 837.97     |   0.0 | 37.33
Other   |            | 9.127      |            |       |  0.41

Nlocal:           5541 ave        5541 max        5541 min
Histogram: 1 0 0 0 0 0 0 0 0 0
Nghost:          36059 ave       36059 max       36059 min
Histogram: 1 0 0 0 0 0 0 0 0 0
Neighs:              0 ave           0 max           0 min
Histogram: 1 0 0 0 0 0 0 0 0 0

Total # of neighbors = 0
Ave neighs/atom = 0
Ave special neighs/atom = 2.4872767
Neighbor list builds = 4654
Dangerous builds = 0
System init for write_restart ...
PPPM initialization ...
  extracting TIP4P info from pair style
  using 12-bit tables for long-range coulomb
  G vector (1/distance) = 0.28869096
  grid = 50 50 50
  stencil order = 5
  estimated absolute RMS force accuracy = 0.00032330634
  estimated relative force accuracy = 9.7362744e-07
  using double precision FFTW3
  3d grid and FFT values/proc = 205379 125000


---------------------------------------------------------------------
      Device Time Info (average): 
---------------------------------------------------------------------
Data Transfer:   6.4400 s.
Neighbor copy:   1.1506 s.
Neighbor build:  10.4228 s.
Force calc:      183.9688 s.
Device Overhead: 1.3360 s.
CPU Neighbor:    3.7851 s.
CPU Cast/Pack:   17.6889 s.
CPU Driver_Time: 1.1687 s.
CPU Idle_Time:   0.6758 s.
Average split:   1.0000.
Max Mem / Proc:  128.59 MB.
Prefetch mode:   None.
Vector width:    32.
Lanes / atom:    8.
Pair block:      256.
Neigh block:     128.
Neigh mode:      Hybrid (binning on host) with subgroup support
---------------------------------------------------------------------


--------------------------------------------------------------------------
- Using acceleration for lj/cut/tip4p/long/gpu:
-  with 1 proc(s) per device.
-  with 5 thread(s) per proc.
-  Horizontal vector operations: ENABLED
-  Shared memory system: No
--------------------------------------------------------------------------
Device 0: Quadro RTX 6000, 72 CUs, 20/23 GB, 1.8 GHZ (Mixed Precision)
--------------------------------------------------------------------------

Initializing Device and compiling on process 0...Done.
Initializing Device 0 on core 0...Done.

Generated 0 of 3 mixed pair_coeff terms from geometric mixing rule
System init for write_data ...
PPPM initialization ...
  extracting TIP4P info from pair style
  using 12-bit tables for long-range coulomb
  G vector (1/distance) = 0.28869096
  grid = 50 50 50
  stencil order = 5
  estimated absolute RMS force accuracy = 0.00032330634
  estimated relative force accuracy = 9.7362744e-07
  using double precision FFTW3
  3d grid and FFT values/proc = 205379 125000

--------------------------------------------------------------------------
- Using acceleration for lj/cut/tip4p/long/gpu:
-  with 1 proc(s) per device.
-  with 5 thread(s) per proc.
-  Horizontal vector operations: ENABLED
-  Shared memory system: No
--------------------------------------------------------------------------
Device 0: Quadro RTX 6000, 72 CUs, 20/23 GB, 1.8 GHZ (Mixed Precision)
--------------------------------------------------------------------------

Initializing Device and compiling on process 0...Done.
Initializing Device 0 on core 0...Done.

Generated 0 of 3 mixed pair_coeff terms from geometric mixing rule
WARNING: Not all mixed pair coeffs generated from mixing. Use write_data with 'pair ij' option to store all pair coeffs. (src/write_data.cpp:364)

Pressure ramp complete:
  Density:  1.07320538546338 g/cm≥
  Pressure: 47.3752952702381 atm
  Volume:   53156.1417683028 Ö≥
  Box size: 37.5997089932168 Ö
úì Checkpoint 3 PASSED: Pressure ramp successful, liquid phase maintained

===== STAGE 3: NPT Equilibration (1000 ps, GPU) =====
Equilibrating at 300K, 1 atm with improved pressure control

Strategy:
  Phase 1 (400 ps): Higher damping for gentle pressure equilibration
  Phase 2 (600 ps): Standard damping for final equilibration

Phase 1: Gentle pressure equilibration (400 ps, pdamp=5000)...
PPPM initialization ...
  extracting TIP4P info from pair style
  using 12-bit tables for long-range coulomb
  G vector (1/distance) = 0.28869096
  grid = 50 50 50
  stencil order = 5
  estimated absolute RMS force accuracy = 0.00032330634
  estimated relative force accuracy = 9.7362744e-07
  using double precision FFTW3
  3d grid and FFT values/proc = 205379 125000

--------------------------------------------------------------------------
- Using acceleration for lj/cut/tip4p/long/gpu:
-  with 1 proc(s) per device.
-  with 5 thread(s) per proc.
-  Horizontal vector operations: ENABLED
-  Shared memory system: No
--------------------------------------------------------------------------
Device 0: Quadro RTX 6000, 72 CUs, 20/23 GB, 1.8 GHZ (Mixed Precision)
--------------------------------------------------------------------------

Initializing Device and compiling on process 0...Done.
Initializing Device 0 on core 0...Done.

Generated 0 of 3 mixed pair_coeff terms from geometric mixing rule
Setting up Verlet run ...
  Unit style    : real
  Current step  : 100010
  Time step     : 2
Per MPI rank memory allocation (min/avg/max) = 52.14 | 52.14 | 52.14 Mbytes
   Step          Temp          Press          Volume         PotEng         KinEng         TotEng        Density    
    100010   299.77913      28.815405      53156.142     -22088.217      3353.6232     -18734.594      1.0732054    
    101000   295.45249      101.68657      53247.202     -22214.379      3305.2211     -18909.158      1.07137      
    102000   303.17284      44.592146      53686.975     -22180.982      3391.5885     -18789.393      1.062594     
    103000   292.50651     -89.313609      53437.051     -22202.13       3272.2645     -18929.865      1.0675637    
    104000   302.00111      62.26532       53409.876     -22207.573      3378.4804     -18829.093      1.0681069    
    105000   300.86035     -780.08314      53559.162     -22131.107      3365.7187     -18765.388      1.0651298    
    106000   299.64169      463.64738      53680.386     -22123.93       3352.0856     -18771.844      1.0627244    
    107000   305.42662     -150.52653      53065.875     -22140.383      3416.8015     -18723.582      1.0750309    
    108000   298.03982      383.36186      52514.972     -22014.449      3334.1656     -18680.284      1.0863084    
    109000   298.60326     -309.29755      53175.066     -22096.362      3340.4687     -18755.893      1.0728234    
    110000   292.8149       237.43168      53611.686     -22064.143      3275.7145     -18788.429      1.0640862    
    111000   299.09571      136.12186      53923.439     -22084.888      3345.9778     -18738.91       1.0579343    
    112000   308.13629     -601.18748      53660.304     -22284.199      3447.1146     -18837.084      1.0631221    
    113000   302.03852     -195.75066      53820.984     -22178.495      3378.8989     -18799.596      1.0599483    
    114000   301.67504     -392.98944      53941.631     -22150.608      3374.8326     -18775.775      1.0575775    
    115000   292.83673      8.0822461      53452.899     -22204.858      3275.9587     -18928.9        1.0672472    
    116000   293.47927     -696.09129      53916.458     -22113.936      3283.1467     -18830.789      1.0580713    
    117000   303.41328      480.99604      53487.276     -22186.627      3394.2783     -18792.348      1.0665613    
    118000   300.34773     -167.40246      53682.326     -22166.886      3359.9841     -18806.902      1.062686     
    119000   297.39956      494.50779      53655.348     -22146.14       3327.0029     -18819.137      1.0632204    
    120000   296.72062      533.35832      53676.259     -22046.003      3319.4076     -18726.595      1.0628061    
    121000   302.79642      168.64362      53672.614     -22290.884      3387.3775     -18903.506      1.0628783    
    122000   300.29805     -1105.9833      53575.914     -22102.904      3359.4283     -18743.475      1.0647967    
    123000   301.85781      437.85304      53072.215     -22191.677      3376.8773     -18814.8        1.0749025    
    124000   300.1617       279.59784      53130.808     -22116.729      3357.903      -18758.826      1.0737171    
    125000   292.73003      603.46515      53398.527     -22135.37       3274.7651     -18860.605      1.0683339    
    126000   296.2607      -971.50176      53420.556     -22249.496      3314.2626     -18935.234      1.0678934    
    127000   299.43509     -516.70392      53328.224     -22021.975      3349.7744     -18672.201      1.0697423    
    128000   301.63856      574.39588      53196.759     -22216.637      3374.4246     -18842.213      1.072386     
    129000   301.3914       631.49802      53371.363     -22017.098      3371.6596     -18645.439      1.0688777    
    130000   301.75786     -375.00651      53688.552     -22187.355      3375.7592     -18811.596      1.0625628    
    131000   301.03468      566.46687      53639.551     -22172.652      3367.669      -18804.983      1.0635335    
    132000   304.41156     -444.1812       53320.165     -22163.069      3405.4461     -18757.623      1.069904     
    133000   298.00895      161.52607      53466.968     -22214.769      3333.8202     -18880.949      1.0669664    
    134000   303.59681      238.98269      53145.568     -22189.748      3396.3314     -18793.417      1.0734189    
    135000   306.33589      282.90936      53228.214     -22146.157      3426.9735     -18719.184      1.0717522    
    136000   301.05193     -458.16         53833.891     -22196.721      3367.862      -18828.859      1.0596941    
    137000   303.86669     -715.30386      53809.584     -22021.183      3399.3507     -18621.832      1.0601728    
    138000   294.10388     -267.9549       53269.206     -22053.727      3290.1343     -18763.592      1.0709275    
    139000   297.7311       575.78684      52976.246     -22121.523      3330.7119     -18790.811      1.0768498    
    140000   300.09291      353.91086      53391.287     -22086.609      3357.1334     -18729.475      1.0684788    
    141000   303.8829      -275.7002       53372.087     -22104.436      3399.532      -18704.904      1.0688632    
    142000   298.71195     -686.20083      53555.841     -22116.395      3341.6846     -18774.711      1.0651958    
    143000   304.8512      -533.712        53679.479     -22098.843      3410.3643     -18688.479      1.0627424    
    144000   297.36388     -78.374052      53645.601     -21993.301      3326.6038     -18666.697      1.0634135    
    145000   303.53466     -218.04913      53441.215     -22050.243      3395.6362     -18654.607      1.0674805    
    146000   301.6299       287.60205      53367.145     -22160.772      3374.3276     -18786.445      1.0689621    
    147000   301.68759      47.691465      53044.529     -22058.525      3374.973      -18683.552      1.0754636    
    148000   302.60688     -840.21258      53671.543     -22057.377      3385.2572     -18672.12       1.0628995    
    149000   298.5268      -303.3119       53990.641     -22167.62       3339.6134     -18828.007      1.0566175    
    150000   294.47893      312.9553       53413.956     -22140.215      3294.33       -18845.885      1.0680253    
    151000   300.9498       15.473349      53628.874     -22179.693      3366.7195     -18812.973      1.0637452    
    152000   297.27052      456.45911      53674.107     -22111.207      3325.5594     -18785.648      1.0628488    
    153000   308.42887     -358.47378      53685.802     -22151.216      3450.3877     -18700.828      1.0626172    
    154000   299.45814      204.08628      53254.462     -22034.847      3350.0322     -18684.815      1.071224     
    155000   295.49118     -244.54163      52680.64      -22235.557      3305.6539     -18929.903      1.0828923    
    156000   309.3449      -259.51137      53481.79      -22137.909      3460.6352     -18677.274      1.0666707    
    157000   300.3669       353.89307      53633.095     -22117.4        3360.1985     -18757.202      1.0636615    
    158000   299.61716      94.247318      53492.97      -22127.982      3351.8112     -18776.171      1.0664478    
    159000   297.13199      282.60454      53387.113     -22150.234      3324.0097     -18826.225      1.0685623    
    160000   297.46694     -685.69053      53802.153     -22203.463      3327.7568     -18875.706      1.0603192    
    161000   291.86076     -143.96095      53736.762     -22153.991      3265.0405     -18888.95       1.0616095    
    162000   293.22243      95.4494        53068.918     -22271.29       3280.2735     -18991.017      1.0749693    
    163000   295.8659      -5.9920024      52753.264     -22090.422      3309.8459     -18780.576      1.0814015    
    164000   305.80081      75.779464      53039.208     -22267.603      3420.9875     -18846.615      1.0755715    
    165000   301.61372      52.509967      53364.413     -22209.234      3374.1467     -18835.087      1.0690169    
    166000   301.91133     -280.52308      53558.473     -22167.194      3377.476      -18789.718      1.0651435    
    167000   298.62952     -7.112081       53208.645     -22266.718      3340.7624     -18925.955      1.0721464    
    168000   298.45407     -841.24378      53603.31      -21980.034      3338.7997     -18641.234      1.0642525    
    169000   296.68059      474.33042      53370.728     -22215.213      3318.9599     -18896.253      1.0688904    
    170000   301.27247     -158.21726      52967.551     -22219.693      3370.3291     -18849.364      1.0770265    
    171000   294.39829     -77.966513      53102.274     -22019.256      3293.4278     -18725.829      1.0742941    
    172000   303.68782      546.40303      53333.131     -22006.407      3397.3496     -18609.057      1.0696439    
    173000   297.35533      248.27213      53389.45      -22122.237      3326.5082     -18795.729      1.0685155    
    174000   305.98628     -80.029477      53645.891     -22188.956      3423.0624     -18765.893      1.0634078    
    175000   300.00976     -709.56701      53195.955     -22242.183      3356.2032     -18885.98       1.0724022    
    176000   302.22411     -151.45966      53100.551     -22257.491      3380.9751     -18876.515      1.0743289    
    177000   299.54374     -327.954        53394.844     -22370.441      3350.9899     -19019.451      1.0684076    
    178000   292.27887     -795.63905      53852.497     -22100.463      3269.718      -18830.745      1.059328     
    179000   296.57309     -347.87468      53679.62      -22140.994      3317.7572     -18823.237      1.0627396    
    180000   301.30884      203.41415      53143.418     -22187.342      3370.736      -18816.606      1.0734623    
    181000   305.71104      63.246145      53273.432     -22091.393      3419.9834     -18671.409      1.0708425    
    182000   303.58028      812.02758      53459.22      -22104.658      3396.1466     -18708.511      1.067121     
    183000   296.29683      662.11572      53730.444     -21976.26       3314.6667     -18661.593      1.0617343    
    184000   299.4486      -223.64295      53235.833     -22128.73       3349.9256     -18778.805      1.0715989    
    185000   296.67994     -191.52557      53487.371     -22086.318      3318.9526     -18767.366      1.0665594    
    186000   304.08645      3.2982324      53718.78      -22255.331      3401.8091     -18853.522      1.0619649    
    187000   297.8345      -295.70669      53068.126     -22292.913      3331.8687     -18961.044      1.0749853    
    188000   296.02534     -76.683199      53409.725     -22097.095      3311.6296     -18785.465      1.0681099    
    189000   297.66375     -95.685908      53582.916     -22106.178      3329.9585     -18776.219      1.0646576    
    190000   301.49679      393.70454      53045.423     -22166.712      3372.8386     -18793.873      1.0754454    
    191000   290.73254     -675.55967      53486.714     -21991.354      3252.4191     -18738.935      1.0665725    
    192000   302.14518     -196.14186      53930.239     -22139.369      3380.0921     -18759.277      1.0578009    
    193000   302.27262     -529.16681      53896.801     -22196.017      3381.5177     -18814.499      1.0584572    
    194000   290.7473       426.50101      53341.061     -22253.284      3252.5843     -19000.7        1.0694849    
    195000   292.95571      394.63235      53254.382     -22165.164      3277.2897     -18887.874      1.0712256    
    196000   304.46545     -819.79807      54155.447     -22175.368      3406.049      -18769.319      1.053402     
    197000   300.71066      350.8118       53223.688     -22089.98       3364.0441     -18725.936      1.0718434    
    198000   301.0781       235.41618      53006.89      -22206.439      3368.1547     -18838.284      1.0762272    
    199000   300.47856      406.64503      53746.849     -22145.197      3361.4477     -18783.749      1.0614103    
    200000   298.68313      572.67643      53673.622     -22161.872      3341.3622     -18820.509      1.0628584    
    201000   299.55309     -157.50677      53710.548     -22197.841      3351.0944     -18846.747      1.0621276    
    202000   301.72711     -82.730972      53526.819     -22069.893      3375.4152     -18694.478      1.0657734    
    203000   302.2276      -346.92283      53646.317     -22198.755      3381.0142     -18817.74       1.0633993    
    204000   296.71147     -527.34016      53178.007     -22149.916      3319.3053     -18830.61       1.0727641    
    205000   303.37528      276.55629      53457.49      -22162.974      3393.8533     -18769.121      1.0671556    
    206000   300.72176      1152.2905      53399.646     -22065.732      3364.1684     -18701.564      1.0683115    
    207000   300.40491      712.66341      53132.217     -22140.712      3360.6237     -18780.088      1.0736886    
    208000   302.94034     -193.37938      53779.198     -22118.019      3388.9876     -18729.032      1.0607718    
    209000   304.68831      199.44054      53557.773     -22150.812      3408.542      -18742.27       1.0651574    
    210000   297.28899     -833.82909      52952.235     -22164.232      3325.7661     -18838.465      1.0773381    
    211000   295.4449      -399.06195      53342.634     -22106.299      3305.1362     -18801.163      1.0694533    
    212000   296.06553     -881.77222      53401.064     -22130.972      3312.0792     -18818.893      1.0682832    
    213000   303.21986      129.14152      53306.265     -22109.136      3392.1145     -18717.022      1.070183     
    214000   299.70217      458.89861      53562.256     -22196.159      3352.7622     -18843.396      1.0650682    
    215000   303.5878      -566.19786      53987.427     -22081.514      3396.2307     -18685.284      1.0566804    
    216000   295.64401      554.4422       53447.894     -22207.267      3307.3637     -18899.903      1.0673472    
    217000   306.91077      155.55578      53364.709     -22205.869      3433.4047     -18772.464      1.0690109    
    218000   295.67022     -474.53359      53245.376     -22130.573      3307.6569     -18822.916      1.0714068    
    219000   298.01008      544.89947      53167.841     -22149.177      3333.8328     -18815.344      1.0729692    
    220000   303.50237     -448.04497      53181.413     -22131.569      3395.2749     -18736.294      1.0726954    
    221000   303.67477      565.32378      53734.283     -22227.272      3397.2037     -18830.068      1.0616585    
    222000   297.22229     -629.80899      53752.151     -22091.734      3325.0198     -18766.714      1.0613056    
    223000   298.48693      352.81176      53807.729     -22118.493      3339.1673     -18779.326      1.0602094    
    224000   293.25289      175.1805       53523.644     -22216.048      3280.6142     -18935.433      1.0658366    
    225000   312.50275      578.87056      53405.455     -22280.63       3495.9621     -18784.668      1.0681953    
    226000   297.18201     -100.94892      53914.736     -22190.752      3324.5692     -18866.183      1.0581051    
    227000   303.12028     -682.0866       54043.867     -22097.943      3391.0005     -18706.942      1.0555769    
    228000   301.42847     -70.891192      53005.267     -22132.694      3372.0744     -18760.62       1.0762602    
    229000   298.44785      184.79276      53012.447     -22077.856      3338.7302     -18739.125      1.0761144    
    230000   300.93357      722.95438      53064.483     -22112.551      3366.5378     -18746.013      1.0750592    
    231000   302.42647      716.06346      53226.227     -22127.521      3383.2389     -18744.282      1.0717923    
    232000   299.20966     -229.48806      53621.275     -22087.415      3347.2525     -18740.163      1.0638959    
    233000   305.96162     -411.26066      53767.915     -22280.236      3422.7865     -18857.449      1.0609944    
    234000   303.01628     -579.99625      53477.838     -22133.473      3389.8371     -18743.636      1.0667495    
    235000   303.26502      675.69362      53277.472     -22277.2        3392.6197     -18884.58       1.0707613    
    236000   298.8374      -397.43564      53450.996     -22239.841      3343.088      -18896.753      1.0672852    
    237000   299.88796     -467.42935      53244.374     -22125.83       3354.8407     -18770.99       1.0714269    
    238000   298.55775      365.70084      53689.446     -22159.617      3339.9596     -18819.657      1.0625451    
    239000   300.8939      -391.1166       53685.986     -22119.608      3366.0941     -18753.514      1.0626136    
    240000   298.70679      523.81112      53268.515     -22081.294      3341.6269     -18739.667      1.0709414    
    241000   297.80785      510.93714      53808.496     -22102.456      3331.5705     -18770.886      1.0601942    
    242000   300.49018     -248.2211       53564.255     -22097.037      3361.5777     -18735.459      1.0650285    
    243000   299.69896      455.47499      53181.688     -22189.701      3352.7263     -18836.975      1.0726899    
    244000   296.23844     -520.08566      53436.16      -22028.496      3314.0135     -18714.482      1.0675815    
    245000   296.67882     -585.5404       53579.892     -22026.793      3318.94       -18707.853      1.0647177    
    246000   300.16725     -221.68091      53563.155     -22106.779      3357.965      -18748.814      1.0650504    
    247000   301.72688      129.02158      53512.626     -22129.443      3375.4126     -18754.03       1.066056     
    248000   296.78382     -247.07649      53156.899     -22174.777      3320.1147     -18854.662      1.0731901    
    249000   297.95614     -735.68029      52823.808     -22043.438      3333.2294     -18710.209      1.0799573    
    250000   300.62521      966.46089      53506.063     -22128.351      3363.0882     -18765.263      1.0661868    
    251000   306.75388     -390.7646       53051.459     -22103.511      3431.6495     -18671.862      1.0753231    
    252000   302.86515      426.98216      53018.201     -22087.222      3388.1464     -18699.076      1.0759976    
    253000   295.4648      -664.65204      53191.036     -22175.205      3305.3588     -18869.847      1.0725013    
    254000   297.90116     -201.3851       53356.419     -22046.933      3332.6143     -18714.319      1.069177     
    255000   309.45662      28.059129      52968.022     -22135.084      3461.885      -18673.199      1.077017     
    256000   297.35335      152.11675      52832.615     -22212.063      3326.486      -18885.577      1.0797773    
    257000   304.615       -763.63036      53860.931     -22277.956      3407.722      -18870.234      1.0591621    
    258000   297.41223     -609.73244      53741.043     -22157.3        3327.1447     -18830.156      1.061525     
    259000   296.25139      86.828862      53221.35      -22184.334      3314.1584     -18870.175      1.0718905    
    260000   289.29504      446.70631      53700.759     -22061.416      3236.3379     -18825.078      1.0623213    
    261000   306.69061     -142.19653      53555.725     -22096.525      3430.9418     -18665.583      1.0651981    
    262000   303.13152     -128.90084      53682.014     -22103.316      3391.1263     -18712.19       1.0626922    
    263000   301.65518      416.79303      54201.705     -22136.653      3374.6105     -18762.043      1.052503     
    264000   305.32396     -179.07796      54137.46      -22163.239      3415.6531     -18747.586      1.053752     
    265000   299.71837      121.6383       53226.027     -22056.906      3352.9434     -18703.962      1.0717963    
    266000   298.28596     -632.34685      53658.383     -22135.053      3336.9191     -18798.134      1.0631602    
    267000   297.27383     -162.7201       53524.288     -22200.442      3325.5964     -18874.845      1.0658238    
    268000   297.87968     -191.28093      53285.651     -22094.547      3332.3741     -18762.173      1.070597     
    269000   310.33089     -369.23296      53333.607     -22114.689      3471.6654     -18643.023      1.0696343    
    270000   294.91338     -736.37117      53105.188     -22180.524      3299.1901     -18881.334      1.0742351    
    271000   301.02556     -253.55568      53325.258     -22240.309      3367.567      -18872.742      1.0698018    
    272000   298.86679     -510.12624      53808.193     -22113.092      3343.4168     -18769.675      1.0602002    
    273000   302.10763      203.38587      53409.14      -22195.161      3379.672      -18815.489      1.0681216    
    274000   297.08412     -72.882112      53754.669     -21925.05       3323.4742     -18601.575      1.0612559    
    275000   299.89797      124.37971      53600.147     -22127.635      3354.9526     -18772.682      1.0643153    
    276000   304.79269     -484.13737      53461.848     -22153.511      3409.7098     -18743.801      1.0670686    
    277000   295.14044     -342.13636      53690.245     -22137.949      3301.7302     -18836.218      1.0625293    
    278000   299.96561     -68.393556      53581.625     -22155.993      3355.7093     -18800.283      1.0646832    
    279000   301.22876     -145.7219       53313.098     -22173.741      3369.8402     -18803.901      1.0700458    
    280000   300.38393     -140.26168      53385.608     -22151.858      3360.3891     -18791.469      1.0685924    
    281000   299.92628      58.857691      53370.357     -22078.575      3355.2693     -18723.306      1.0688978    
    282000   301.80695      351.03082      52956.847     -22164.117      3376.3083     -18787.809      1.0772442    
    283000   297.59298     -283.04124      53116.826     -22140.077      3329.1668     -18810.911      1.0739997    
    284000   300.56843      194.90483      53560.161     -22164.579      3362.4531     -18802.126      1.0651099    
    285000   297.00471      371.05934      53638.045     -22056.73       3322.5858     -18734.144      1.0635633    
    286000   300.11112      137.2577       53470.803     -22125.375      3357.3371     -18768.038      1.0668899    
    287000   302.64954      155.93418      53529.372     -22097.386      3385.7343     -18711.652      1.0657225    
    288000   300.28104     -467.56604      53469.915     -22179.475      3359.238      -18820.237      1.0669076    
    289000   303.16261      194.17009      52853.427     -22184.265      3391.474      -18792.791      1.0793521    
    290000   296.87771      59.51531       53570.299     -21972.009      3321.1651     -18650.844      1.0649083    
    291000   295.91089     -287.7569       53721.785     -22217.392      3310.3493     -18907.043      1.0619055    
    292000   297.66691      416.26635      53145.666     -22282.226      3329.9938     -18952.232      1.0734169    
    293000   297.87139     -630.93528      53820.053     -22093.292      3332.2813     -18761.011      1.0599666    
    294000   299.12854      114.31115      53674.911     -22217.468      3346.3451     -18871.123      1.0628328    
    295000   297.84639     -500.9669       53868.934     -22114.562      3332.0017     -18782.56       1.0590048    
    296000   294.39422     -666.25182      53850.382     -22151.108      3293.3823     -18857.726      1.0593696    
    297000   302.13324      53.321001      53766.778     -22218.92       3379.9586     -18838.961      1.0610169    
    298000   296.2876      -207.48774      53772.927     -22136.171      3314.5635     -18821.608      1.0608955    
    299000   296.87609     -141.65475      53118.743     -22113.445      3321.1469     -18792.298      1.073961     
    300000   309.30687     -159.07105      53249.354     -22111.43       3460.2098     -18651.22       1.0713267    
    300010   304.9          499.36079      53256.098     -22072.143      3410.9103     -18661.233      1.0711911    
Loop time of 8994.9 on 5 procs for 200000 steps with 5541 atoms

Performance: 3.842 ns/day, 6.246 hours/ns, 22.235 timesteps/s, 123.203 katom-step/s
360.1% CPU use with 1 MPI tasks x 5 OpenMP threads

MPI task timing breakdown:
Section |  min time  |  avg time  |  max time  |%varavg| %total
---------------------------------------------------------------
Pair    | 340.79     | 340.79     | 340.79     |   0.0 |  3.79
Bond    | 3.3401     | 3.3401     | 3.3401     |   0.0 |  0.04
Kspace  | 5172.1     | 5172.1     | 5172.1     |   0.0 | 57.50
Neigh   | 0.46767    | 0.46767    | 0.46767    |   0.0 |  0.01
Comm    | 90.455     | 90.455     | 90.455     |   0.0 |  1.01
Output  | 0.84741    | 0.84741    | 0.84741    |   0.0 |  0.01
Modify  | 3350.5     | 3350.5     | 3350.5     |   0.0 | 37.25
Other   |            | 36.36      |            |       |  0.40

Nlocal:           5541 ave        5541 max        5541 min
Histogram: 1 0 0 0 0 0 0 0 0 0
Nghost:          36039 ave       36039 max       36039 min
Histogram: 1 0 0 0 0 0 0 0 0 0
Neighs:              0 ave           0 max           0 min
Histogram: 1 0 0 0 0 0 0 0 0 0

Total # of neighbors = 0
Ave neighs/atom = 0
Ave special neighs/atom = 2.4872767
Neighbor list builds = 18550
Dangerous builds = 0

Phase 1 complete:
  Density:  1.07119109639714 g/cm≥
  Pressure: 499.360792612115 atm

Phase 2: Final equilibration (600 ps, pdamp=2000)...
PPPM initialization ...
  extracting TIP4P info from pair style
  using 12-bit tables for long-range coulomb
  G vector (1/distance) = 0.2886579
  grid = 50 50 50
  stencil order = 5
  estimated absolute RMS force accuracy = 0.0003238841
  estimated relative force accuracy = 9.7536734e-07
  using double precision FFTW3
  3d grid and FFT values/proc = 205379 125000


---------------------------------------------------------------------
      Device Time Info (average): 
---------------------------------------------------------------------
Data Transfer:   25.8244 s.
Neighbor copy:   4.5981 s.
Neighbor build:  41.2173 s.
Force calc:      732.8344 s.
Device Overhead: 5.7991 s.
CPU Neighbor:    15.0175 s.
CPU Cast/Pack:   70.7643 s.
CPU Driver_Time: 5.2103 s.
CPU Idle_Time:   2.7350 s.
Average split:   1.0000.
Max Mem / Proc:  267.48 MB.
Prefetch mode:   None.
Vector width:    32.
Lanes / atom:    8.
Pair block:      256.
Neigh block:     128.
Neigh mode:      Hybrid (binning on host) with subgroup support
---------------------------------------------------------------------


--------------------------------------------------------------------------
- Using acceleration for lj/cut/tip4p/long/gpu:
-  with 1 proc(s) per device.
-  with 5 thread(s) per proc.
-  Horizontal vector operations: ENABLED
-  Shared memory system: No
--------------------------------------------------------------------------
Device 0: Quadro RTX 6000, 72 CUs, 20/23 GB, 1.8 GHZ (Mixed Precision)
--------------------------------------------------------------------------

Initializing Device and compiling on process 0...Done.
Initializing Device 0 on core 0...Done.

Generated 0 of 3 mixed pair_coeff terms from geometric mixing rule
Setting up Verlet run ...
  Unit style    : real
  Current step  : 300010
  Time step     : 2
Per MPI rank memory allocation (min/avg/max) = 54.69 | 54.69 | 54.69 Mbytes
   Step          Temp          Press          Volume         PotEng         KinEng         TotEng        Density    
    300010   304.9          506.42815      53256.098     -22072.112      3410.9103     -18661.202      1.0711911    
    301000   296.95096     -21.925278      53281.417     -22252.319      3321.9845     -18930.334      1.0706821    
    302000   300.16532     -122.35207      53281.162     -22061.76       3357.9435     -18703.817      1.0706872    
    303000   295.5437      -554.69566      53187.142     -22158.734      3306.2415     -18852.493      1.0725799    
    304000   298.01007      795.46036      53174.838     -22082.007      3333.8327     -18748.175      1.072828     
    305000   304.80556     -820.86474      53687.75      -22175.428      3409.8538     -18765.575      1.0625787    
    306000   299.07747      489.99099      53273.516     -22141.612      3345.7737     -18795.838      1.0708409    
    307000   299.60274     -491.3702       53032.277     -22161.269      3351.6499     -18809.619      1.075712     
    308000   299.38004     -150.72952      53672.307     -22221.206      3349.1585     -18872.048      1.0628844    
    309000   297.14343     -210.20816      53791.487     -22109.421      3324.1377     -18785.283      1.0605295    
    310000   304.67284     -341.46744      53766.091     -22119.747      3408.3689     -18711.378      1.0610304    
    311000   299.33963      737.33303      53509.653     -22101.161      3348.7065     -18752.454      1.0661153    
    312000   301.72285     -436.20955      53448.02      -22215.687      3375.3675     -18840.32       1.0673446    
    313000   306.17585     -1787.7572      53961.909     -22052.894      3425.1831     -18627.711      1.0571801    
    314000   302.63538     -519.00618      53369.543     -22250.106      3385.576      -18864.53       1.0689141    
    315000   302.59651     -247.51066      53499.471     -22244.733      3385.1411     -18859.591      1.0663182    
    316000   302.8202      -300.37005      53712.504     -22149.487      3387.6436     -18761.843      1.062089     
    317000   297.43197     -15.855932      53029.711     -22171.543      3327.3655     -18844.178      1.0757641    
    318000   297.93938      119.82524      53772.669     -22124.325      3333.0419     -18791.283      1.0609006    
    319000   297.72598     -196.80692      53922.432     -22141.845      3330.6546     -18811.191      1.0579541    
    320000   304.60334     -127.12834      53595.009     -22294.964      3407.5915     -18887.372      1.0644173    
    321000   296.94261     -745.82444      53398.076     -22143.604      3321.8911     -18821.713      1.068343     
    322000   302.49606     -745.18963      53559.584     -22066.9        3384.0174     -18682.882      1.0651214    
    323000   297.56439      351.80432      53725.863     -22180.218      3328.8469     -18851.371      1.0618249    
    324000   306.10118     -45.444969      53635.223     -22083.359      3424.3478     -18659.012      1.0636193    
    325000   307.63325     -709.2757       53127.906     -22113.114      3441.4871     -18671.627      1.0737758    
    326000   295.66678     -444.79036      53614.09      -22101.339      3307.6184     -18793.72       1.0640385    
    327000   299.83062      296.43203      53274.327     -22159.799      3354.1992     -18805.6        1.0708246    
    328000   295.51232      471.65686      53249.057     -22113.355      3305.8905     -18807.465      1.0713327    
    329000   296.29985     -492.44523      53495.744     -22189.565      3314.7005     -18874.865      1.0663924    
    330000   294.88959     -375.85134      53618.669     -22240.919      3298.9239     -18941.995      1.0639477    
    331000   299.60238     -193.98724      53420.658     -22126.182      3351.6458     -18774.536      1.0678913    
    332000   292.33208      648.59644      53568.92      -22154.705      3270.3132     -18884.392      1.0649357    
    333000   301.82586     -646.16101      53514.524     -22151.486      3376.5199     -18774.966      1.0660182    
    334000   294.78994      612.36625      53440.315     -22222.987      3297.8092     -18925.177      1.0674985    
    335000   296.63365     -565.28885      53643.908     -22119.523      3318.4347     -18801.088      1.0634471    
    336000   304.74679      325.59561      53627.787     -22177.425      3409.1963     -18768.229      1.0637668    
    337000   299.06253     -131.70612      53610.007     -22103.736      3345.6066     -18758.13       1.0641196    
    338000   309.70776      134.62164      53524.305     -22114.997      3464.6945     -18650.302      1.0658234    
    339000   299.87192      191.77542      52959.316     -22073.324      3354.6612     -18718.663      1.077194     
    340000   301.47621     -91.216157      52867.984     -22061.405      3372.6084     -18688.797      1.0790549    
    341000   297.35847     -256.00873      53168.003     -22116.157      3326.5432     -18789.614      1.072966     
    342000   306.75355      234.82214      53781.442     -22248.33       3431.6458     -18816.684      1.0607276    
    343000   298.6143       827.09039      53137.089     -22150.629      3340.5922     -18810.037      1.0735902    
    344000   303.16259      729.29632      53313.913     -22225.629      3391.4739     -18834.156      1.0700295    
    345000   301.11634      14.243286      53536.276     -22113.783      3368.5825     -18745.201      1.0655851    
    346000   298.94111      405.39148      53650.587     -22177.421      3344.2483     -18833.173      1.0633147    
    347000   304.57458     -71.918626      53930.398     -22159.164      3407.2698     -18751.894      1.0577978    
    348000   300.68712      91.797066      53977.001     -22200.928      3363.7809     -18837.147      1.0568845    
    349000   304.09163      269.30308      53971.082     -22294.855      3401.867      -18892.988      1.0570005    
    350000   295.66397      618.55362      53563.135     -22194.963      3307.5869     -18887.376      1.0650508    
    351000   301.88111     -280.46328      53525.438     -22243.094      3377.138      -18865.956      1.0658009    
    352000   293.79918     -369.48216      53445.487     -22165.654      3286.7255     -18878.928      1.0673952    
    353000   298.0167       8.9051354      53788.622     -22128.888      3333.9069     -18794.981      1.060586     
    354000   307.72111     -131.67668      53605.198     -22230.962      3442.47       -18788.492      1.064215     
    355000   305.78122      312.4797       53306.36      -22156.513      3420.7684     -18735.745      1.0701811    
    356000   302.07192      572.03151      53126.764     -22127.172      3379.2725     -18747.899      1.0737989    
    357000   299.2061       173.31392      52973.803     -22101.52       3347.2127     -18754.307      1.0768994    
    358000   302.60956     -766.79919      53668.366     -22128.522      3385.2871     -18743.235      1.0629624    
    359000   292.4623      -359.63898      53876.256     -22153.893      3271.7699     -18882.123      1.0588608    
    360000   298.91473     -769.1382       53937.831     -22185.132      3343.9531     -18841.179      1.057652     
    361000   297.8592      -755.6949       54014.324     -22102.152      3332.145      -18770.007      1.0561542    
    362000   302.05998      153.76081      53431.692     -22079.614      3379.139      -18700.475      1.0676708    
    363000   296.1358       178.46036      53383.257     -22160.978      3312.8653     -18848.113      1.0686395    
    364000   303.89647      72.276704      53074.938     -22260.672      3399.6838     -18860.988      1.0748474    
    365000   299.54099      15.214883      53271.72      -22124.201      3350.9591     -18773.242      1.070877     
    366000   307.88324     -830.18256      53380.667     -22078.339      3444.2837     -18634.055      1.0686914    
    367000   298.59314      314.41924      53342.476     -22175.662      3340.3556     -18835.306      1.0694565    
    368000   294.46769     -68.643614      53513.606     -22201.275      3294.2042     -18907.071      1.0660365    
    369000   304.25906     -384.12535      53798.72      -22164.858      3403.74       -18761.118      1.0603869    
    370000   289.7996       124.79606      53440.812     -22086.287      3241.9823     -18844.304      1.0674886    
    371000   296.89186      854.81519      53112.471     -22161.497      3321.3233     -18840.174      1.0740878    
    372000   294.50755     -487.20899      53101.352     -22032.053      3294.6501     -18737.403      1.0743127    
    373000   296.70402      75.824391      53348.123     -22064.885      3319.222      -18745.663      1.0693433    
    374000   295.81547      797.80222      53320.563     -22072.673      3309.2817     -18763.391      1.069896     
    375000   300.02745     -562.20659      53368.976     -22130.269      3356.4011     -18773.868      1.0689255    
    376000   302.37433      23.049697      53314.942     -22093.573      3382.6556     -18710.917      1.0700088    
    377000   299.79319      123.21926      53674.885     -22226.134      3353.7804     -18872.354      1.0628334    
    378000   302.55139      310.68678      53448.213     -22165.066      3384.6363     -18780.43       1.0673408    
    379000   299.16143      742.92556      52918.463     -22245.136      3346.7129     -18898.423      1.0780256    
    380000   307.55561      160.641        53098.415     -22168.368      3440.6185     -18727.75       1.0743721    
[...]
   1487000   295.36433      367.9042       53232.544     -22112.868      3304.2349     -18808.633      1.0716651    
   1488000   299.35224     -141.21639      53768.694     -22196.629      3348.8476     -18847.781      1.060979     
   1489000   299.05085     -122.20872      53630.398     -22135.245      3345.4759     -18789.769      1.063715     
   1490000   296.59186      106.60834      53387.112     -22236.671      3317.9672     -18918.704      1.0685623    
   1491000   298.77647      1182.9529      52949.637     -22140.355      3342.4064     -18797.949      1.0773909    
   1492000   296.0889       56.567265      53145.774     -22030.952      3312.3407     -18718.611      1.0734147    
   1493000   304.62249     -1215.7545      53621.356     -22087.809      3407.8057     -18680.003      1.0638944    
   1494000   300.39134      287.32488      53456.385     -22162.715      3360.4719     -18802.243      1.0671776    
   1495000   309.05499      712.70473      53058.302     -22131.076      3457.3921     -18673.684      1.0751844    
   1496000   288.34362      248.61539      53189.213     -22144.468      3225.6943     -18918.774      1.0725381    
   1497000   304.10085     -597.386        53735.041     -22047.456      3401.9701     -18645.486      1.0616435    
   1498000   289.13546     -334.52351      53519.186     -22145.579      3234.5526     -18911.027      1.0659254    
   1499000   305.24301     -801.6193       53468.364     -22350.889      3414.7475     -18936.142      1.0669385    
   1500000   296.29672      677.56084      53884.768     -22130.143      3314.6655     -18815.478      1.0586936    
   1501000   300.37059     -2.249825       53260.539     -22188.974      3360.2399     -18828.734      1.0711018    
   1502000   305.99822      194.61647      53628.216     -22176.889      3423.196      -18753.693      1.0637583    
   1503000   297.52761      479.62703      53655.086     -22198.274      3328.4355     -18869.839      1.0632255    
   1504000   298.32726     -435.51284      53355.996     -22192.331      3337.3811     -18854.95       1.0691855    
   1505000   301.63562     -309.03205      53750.906     -22149.222      3374.3917     -18774.831      1.0613302    
   1506000   293.34366      348.63128      53003.829     -22205.226      3281.6297     -18923.596      1.0762894    
   1507000   300.01112      334.10213      53522.749     -22102.461      3356.2185     -18746.243      1.0658544    
   1508000   306.49477      238.42389      53563.272     -22248.559      3428.7509     -18819.808      1.065048     
   1509000   301.31668      607.80809      53651.149     -22145.497      3370.8237     -18774.674      1.0633036    
   1510000   301.27717     -108.76062      53343.282     -22273.025      3370.3817     -18902.643      1.0694403    
   1511000   302.68796     -612.47907      53507.399     -22176.436      3386.1642     -18790.271      1.0661602    
   1512000   307.64805      324.79236      53863.074     -22073.634      3441.6527     -18631.982      1.05912      
   1513000   297.33239      408.6451       53856.049     -22109.872      3326.2515     -18783.621      1.0592581    
   1514000   297.68856     -267.9297       53851.381     -22115.385      3330.2361     -18785.149      1.0593499    
   1515000   303.98061      247.11952      53401.166     -22207.792      3400.625      -18807.167      1.0682811    
   1516000   302.26807     -28.229342      53320.115     -22145.406      3381.4669     -18763.939      1.069905     
   1517000   301.41858      418.87659      53159.01      -22167.985      3371.9636     -18796.021      1.0731475    
   1518000   308.31776      96.26895       53940.911     -22131.901      3449.1447     -18682.757      1.0575917    
   1519000   299.44096      224.33609      53842.65      -22178.636      3349.8401     -18828.796      1.0595217    
   1520000   305.14484     -241.49814      53513.721     -22136.77       3413.6493     -18723.121      1.0660342    
   1521000   302.23708      451.69594      53512.904     -22162.756      3381.1202     -18781.636      1.0660505    
   1522000   304.40035      230.475        53542.604     -22224.731      3405.3206     -18819.411      1.0654591    
   1523000   301.09151      41.541275      53137.139     -22171.336      3368.3047     -18803.031      1.0735892    
   1524000   310.25493     -188.9876       53189.254     -22181.358      3470.8158     -18710.543      1.0725373    
   1525000   295.6787       154.90046      53018.999     -22205.538      3307.7517     -18897.787      1.0759814    
   1526000   302.49817      191.93753      52996.739     -22250.063      3384.041      -18866.022      1.0764334    
   1527000   305.61152     -201.70541      53115.914     -22116.902      3418.87       -18698.031      1.0740182    
   1528000   307.51709     -155.48219      53110.281     -22155.025      3440.1876     -18714.838      1.0741321    
   1529000   304.89178     -124.76636      53481.241     -22085.102      3410.8183     -18674.284      1.0666816    
   1530000   293.73432     -392.18789      53298.418     -22191.566      3286          -18905.566      1.0703405    
   1531000   303.8366      -811.59489      53506.014     -22219.033      3399.014      -18820.019      1.0661878    
   1532000   301.46857      308.03627      53293.611     -22201.815      3372.5229     -18829.292      1.0704371    
   1533000   292.36298      248.45336      53718.239     -22054.249      3270.6589     -18783.59       1.0619756    
   1534000   300.18924      680.34015      52986.327     -22138.543      3358.2111     -18780.332      1.0766449    
   1535000   297.36128     -91.20608       53589.785     -22031.505      3326.5748     -18704.93       1.0645211    
   1536000   294.21962      754.32644      52889.154     -22135.669      3291.429      -18844.24       1.078623     
   1537000   293.82231      64.188248      53223.513     -22279.317      3286.9843     -18992.332      1.0718469    
   1538000   301.08824      359.72977      52970.441     -22235.189      3368.2682     -18866.92       1.0769678    
   1539000   304.64809      274.65535      53372.298     -22049.606      3408.0921     -18641.514      1.0688589    
   1540000   297.5826      -871.33349      53430.211     -22236.458      3329.0506     -18907.408      1.0677004    
   1541000   299.86461      293.97447      53203.547     -22068.424      3354.5794     -18713.844      1.0722491    
   1542000   298.61365      337.94608      52958.055     -22078.686      3340.585      -18738.101      1.0772196    
   1543000   296.03609      272.28996      53169.064     -22140.868      3311.7499     -18829.118      1.0729446    
   1544000   302.04228     -401.82504      53696.084     -22150.485      3378.9409     -18771.544      1.0624137    
   1545000   299.23375     -106.81881      53155.846     -22081.889      3347.522      -18734.367      1.0732114    
   1546000   303.66157     -381.64184      53625.297     -22127.379      3397.056      -18730.323      1.0638162    
   1547000   296.7723      -369.26476      53863.218     -22091.642      3319.9858     -18771.657      1.0591171    
   1548000   295.59234     -586.09397      53417.617     -22183.519      3306.7856     -18876.734      1.0679521    
   1549000   304.45012      846.24971      52866.071     -22114.737      3405.8774     -18708.859      1.0790939    
   1550000   301.708       -196.28428      53383.27      -22126.16       3375.2014     -18750.958      1.0686393    
   1551000   304.48252     -212.31709      53925.504     -22249.453      3406.2399     -18843.214      1.0578938    
   1552000   304.26659     -1070.83        54044.068     -22122.708      3403.8243     -18718.884      1.055573     
   1553000   298.82653     -374.98614      53966.852     -22157.847      3342.9665     -18814.881      1.0570833    
   1554000   302.55399      570.04547      53449.259     -22023.642      3384.6655     -18638.977      1.0673199    
   1555000   300.8275       161.27731      53405.947     -22157.897      3365.3512     -18792.546      1.0681855    
   1556000   302.8157       649.79853      53786.266     -22139.057      3387.5932     -18751.464      1.0606324    
   1557000   292.51939     -674.21846      53311.303     -22116.109      3272.4086     -18843.701      1.0700819    
   1558000   304.02357      325.02701      52923.637     -22163.273      3401.1057     -18762.167      1.0779202    
   1559000   302.90792     -135.67822      53620.212     -22058.75       3388.6249     -18670.125      1.063917     
   1560000   298.20373     -370.49084      53400.066     -21984.482      3335.9991     -18648.483      1.0683031    
   1561000   302.12236     -290.93993      53278.955     -22140.198      3379.8368     -18760.361      1.0707316    
   1562000   298.78326     -467.98246      53355.296     -22157.661      3342.4824     -18815.178      1.0691995    
   1563000   301.48196      682.17545      52606.317     -22215.84       3372.6727     -18843.168      1.0844222    
   1564000   306.18752      349.45266      52736.391     -22173.801      3425.3137     -18748.488      1.0817475    
   1565000   295.15432      334.66084      53628.911     -22025.258      3301.8856     -18723.372      1.0637445    
   1566000   302.80238     -209.93489      53614.104     -22177.459      3387.4442     -18790.014      1.0640383    
   1567000   298.30164     -568.34857      53653.541     -22101.782      3337.0945     -18764.687      1.0632561    
   1568000   297.46418      139.59581      53393.411     -22108.518      3327.7259     -18780.792      1.0684363    
   1569000   295.90877      135.65941      53691.107     -22137.395      3310.3255     -18827.07       1.0625122    
   1570000   301.26481     -176.45109      53787.222     -22174.592      3370.2435     -18804.349      1.0606136    
   1571000   295.17382      321.11092      53456.454     -22093.413      3302.1036     -18791.31       1.0671762    
   1572000   303.06563     -245.37229      53573.374     -22100.717      3390.3892     -18710.327      1.0648472    
   1573000   299.7051      -215.07514      53024.111     -22224.307      3352.795      -18871.512      1.0758777    
   1574000   294.94737     -831.10547      53679.026     -22042.935      3299.5703     -18743.365      1.0627514    
   1575000   304.9464       909.23415      53269.397     -22219.07       3411.4294     -18807.641      1.0709237    
   1576000   299.77475     -832.2416       53271.663     -22248.896      3353.5742     -18895.322      1.0708781    
   1577000   299.16745     -821.75303      53194.264     -22102.249      3346.7803     -18755.468      1.0724363    
   1578000   298.69396      92.713061      53158.985     -22114.755      3341.4834     -18773.271      1.073148     
   1579000   293.96139     -926.96622      53438.674     -22209.488      3288.5402     -18920.948      1.0675313    
   1580000   298.73891      102.72325      53207.634     -22168.318      3341.9862     -18826.332      1.0721668    
   1581000   301.6891      -323.60954      53217.549     -22064.873      3374.99       -18689.883      1.071967     
   1582000   306.72924      1.7541546      53603.851     -22121.633      3431.374      -18690.259      1.0642418    
   1583000   300.77441      654.42776      53659.717     -22283.616      3364.7573     -18918.859      1.0631338    
   1584000   301.99234      72.953466      53767.656     -22033.832      3378.3823     -18655.449      1.0609995    
   1585000   300.12601     -1337.4077      53881.87      -22121.506      3357.5038     -18764.002      1.0587505    
   1586000   301.42398     -601.96839      53676.327     -22056.631      3372.0241     -18684.607      1.0628048    
   1587000   305.19407      109.46169      53837.134     -22145.184      3414.2        -18730.984      1.0596303    
   1588000   293.58844     -395.894        53008.645     -22130.27       3284.3681     -18845.902      1.0761916    
   1589000   299.70642     -180.97938      53662.819     -22078.505      3352.8098     -18725.695      1.0630723    
   1590000   294.9806      -148.6889       53278.321     -22186.871      3299.9421     -18886.929      1.0707443    
   1591000   298.89233     -345.06906      53343.004     -22163.772      3343.7026     -18820.069      1.0694459    
   1592000   293.01599     -498.64524      53964.152     -22225.226      3277.9641     -18947.262      1.0571362    
   1593000   304.52332      108.00484      53679.646     -22177.666      3406.6963     -18770.969      1.0627391    
   1594000   297.95951      341.59049      53842.167     -22109.864      3333.2671     -18776.597      1.0595312    
   1595000   301.55761     -512.16956      53770.502     -22132.938      3373.519      -18759.419      1.0609434    
   1596000   302.45085      334.65074      53229.972     -22185.419      3383.5116     -18801.908      1.0717168    
   1597000   303.89798      395.58244      53790.274     -22138.174      3399.7007     -18738.473      1.0605534    
   1598000   296.46422     -225.4612       53479.886     -22158.612      3316.5394     -18842.072      1.0667087    
   1599000   298.07716      200.08464      53211.072     -22155.854      3334.5833     -18821.271      1.0720975    
   1600000   298.45933      1093.1429      53272.872     -22181.655      3338.8586     -18842.796      1.0708538    
   1600010   302.23442      1042.3338      53235.097     -22231.42       3381.0904     -18850.329      1.0716137    
Loop time of 44945.8 on 5 procs for 1000000 steps with 5541 atoms

Performance: 3.845 ns/day, 6.242 hours/ns, 22.249 timesteps/s, 123.282 katom-step/s
355.4% CPU use with 1 MPI tasks x 5 OpenMP threads

MPI task timing breakdown:
Section |  min time  |  avg time  |  max time  |%varavg| %total
---------------------------------------------------------------
Pair    | 1668.6     | 1668.6     | 1668.6     |   0.0 |  3.71
Bond    | 15.47      | 15.47      | 15.47      |   0.0 |  0.03
Kspace  | 25058      | 25058      | 25058      |   0.0 | 55.75
Neigh   | 38.224     | 38.224     | 38.224     |   0.0 |  0.09
Comm    | 443.8      | 443.8      | 443.8      |   0.0 |  0.99
Output  | 16.159     | 16.159     | 16.159     |   0.0 |  0.04
Modify  | 17524      | 17524      | 17524      |   0.0 | 38.99
Other   |            | 180.6      |            |       |  0.40

Nlocal:           5541 ave        5541 max        5541 min
Histogram: 1 0 0 0 0 0 0 0 0 0
Nghost:          36010 ave       36010 max       36010 min
Histogram: 1 0 0 0 0 0 0 0 0 0
Neighs:    4.86329e+06 ave 4.86329e+06 max 4.86329e+06 min
Histogram: 1 0 0 0 0 0 0 0 0 0

Total # of neighbors = 4863290
Ave neighs/atom = 877.69175
Ave special neighs/atom = 2.4872767
Neighbor list builds = 93118
Dangerous builds = 0

===== Saving Final Configuration =====
System init for write_data ...
PPPM initialization ...
  extracting TIP4P info from pair style
  using 12-bit tables for long-range coulomb
  G vector (1/distance) = 0.28866484
  grid = 50 50 50
  stencil order = 5
  estimated absolute RMS force accuracy = 0.00032376271
  estimated relative force accuracy = 9.7500178e-07
  using double precision FFTW3
  3d grid and FFT values/proc = 205379 125000


---------------------------------------------------------------------
      Device Time Info (average): 
---------------------------------------------------------------------
Data Transfer:   129.5867 s.
Neighbor copy:   22.9623 s.
Neighbor build:  202.7149 s.
Force calc:      3623.4050 s.
Device Overhead: 591.8758 s.
CPU Neighbor:    74.9579 s.
CPU Cast/Pack:   352.9981 s.
CPU Driver_Time: 32.5535 s.
CPU Idle_Time:   13.3715 s.
Average split:   1.0000.
Max Mem / Proc:  142.73 MB.
Prefetch mode:   None.
Vector width:    32.
Lanes / atom:    8.
Pair block:      256.
Neigh block:     128.
Neigh mode:      Hybrid (binning on host) with subgroup support
---------------------------------------------------------------------


--------------------------------------------------------------------------
- Using acceleration for lj/cut/tip4p/long/gpu:
-  with 1 proc(s) per device.
-  with 5 thread(s) per proc.
-  Horizontal vector operations: ENABLED
-  Shared memory system: No
--------------------------------------------------------------------------
Device 0: Quadro RTX 6000, 72 CUs, 23/23 GB, 1.8 GHZ (Mixed Precision)
--------------------------------------------------------------------------

Initializing Device and compiling on process 0...Done.
Initializing Device 0 on core 0...Done.

Generated 0 of 3 mixed pair_coeff terms from geometric mixing rule
WARNING: Not all mixed pair coeffs generated from mixing. Use write_data with 'pair ij' option to store all pair coeffs. (src/write_data.cpp:364)
System init for write_restart ...
PPPM initialization ...
  extracting TIP4P info from pair style
  using 12-bit tables for long-range coulomb
  G vector (1/distance) = 0.28866484
  grid = 50 50 50
  stencil order = 5
  estimated absolute RMS force accuracy = 0.00032376271
  estimated relative force accuracy = 9.7500178e-07
  using double precision FFTW3
  3d grid and FFT values/proc = 205379 125000

--------------------------------------------------------------------------
- Using acceleration for lj/cut/tip4p/long/gpu:
-  with 1 proc(s) per device.
-  with 5 thread(s) per proc.
-  Horizontal vector operations: ENABLED
-  Shared memory system: No
--------------------------------------------------------------------------
Device 0: Quadro RTX 6000, 72 CUs, 23/23 GB, 1.8 GHZ (Mixed Precision)
--------------------------------------------------------------------------

Initializing Device and compiling on process 0...Done.
Initializing Device 0 on core 0...Done.

Generated 0 of 3 mixed pair_coeff terms from geometric mixing rule

ïêïêïêïêïêïêïêïêïêïêïêïêïêïêïêïêïêïêïêïêïêïêïêïêïêïêïêïêïêïêïêïêïêïêïêïêïêïêïêïêïêïêïêïêïêïêïêïêïêïêïêïêïêïêïêïêïêïêïêïêïêïêïêïêïêïêïêïêïêïêïêïêïêïêïêïê
                     EQUILIBRATION COMPLETE - SUCCESS!
ïêïêïêïêïêïêïêïêïêïêïêïêïêïêïêïêïêïêïêïêïêïêïêïêïêïêïêïêïêïêïêïêïêïêïêïêïêïêïêïêïêïêïêïêïêïêïêïêïêïêïêïêïêïêïêïêïêïêïêïêïêïêïêïêïêïêïêïêïêïêïêïêïêïêïêïê

Simulation Summary:
  Total simulation time: 5.22 ns
    - NVT thermalization:     50 ps
    - Pre-equilibration:      50 ps  (NEW - prevents PPPM artifacts)
    - Pressure ramp:         100 ps  (EXTENDED and with drag damping)
    - NPT equilibration:    1000 ps
    - Production run:       4000 ps (4 ns)

Final Thermodynamic State:
  Temperature:    302.234420086047 K      (target: 300K)
  Pressure:       1042.33378525853 atm   (target: 1 atm)
  Density:        1.07161367135029 g/cm≥  (target: 0.95-1.05)
  Volume:         53235.0968836693 Ö≥
  Box size:       37.6183159414352 Ö    (expected: 58-63)

Final Energies:
  Potential:      -22231.4197313534 kcal/mol
  Kinetic:        3381.09044837208 kcal/mol
  Total:          -18850.3292829814 kcal/mol


ERROR: Input line quote not followed by white-space (src/input.cpp:556)
Last input line: if "${final_dens} >= 0.85" then "if \"${final_dens} <= 1.15\" then \"jump SELF validation_success\" else \"jump SELF validation_warning\""
Cuda driver error 4 in call at file '/home/iiserk/sbs/solvent/mylammps_v2/lib/gpu/geryon/nvd_timer.h' in line 98.
Cuda driver error 4 in call at file '/home/iiserk/sbs/solvent/mylammps_v2/lib/gpu/geryon/nvd_timer.h' in line 99.
Cuda driver error 4 in call at file '/home/iiserk/sbs/solvent/mylammps_v2/lib/gpu/geryon/nvd_timer.h' in line 98.
Cuda driver error 4 in call at file '/home/iiserk/sbs/solvent/mylammps_v2/lib/gpu/geryon/nvd_timer.h' in line 99.
Cuda driver error 4 in call at file '/home/iiserk/sbs/solvent/mylammps_v2/lib/gpu/geryon/nvd_timer.h' in line 98.
Cuda driver error 4 in call at file '/home/iiserk/sbs/solvent/mylammps_v2/lib/gpu/geryon/nvd_timer.h' in line 99.
Cuda driver error 4 in call at file '/home/iiserk/sbs/solvent/mylammps_v2/lib/gpu/geryon/nvd_timer.h' in line 98.
Cuda driver error 4 in call at file '/home/iiserk/sbs/solvent/mylammps_v2/lib/gpu/geryon/nvd_timer.h' in line 99.
