LAMMPS (10 Sep 2025)
  using 5 OpenMP thread(s) per MPI task
Reading data file ...
  orthogonal box = (-20 -20 -20) to (20 20 20)
  1 by 1 by 1 MPI processor grid
  reading atoms ...
  5541 atoms
  reading velocities ...
  5541 velocities
  scanning bonds ...
  3 = max bonds/atom
  scanning angles ...
  1 = max angles/atom
  orthogonal box = (-20 -20 -20) to (20 20 20)
  1 by 1 by 1 MPI processor grid
  reading bonds ...
  3844 bonds
  reading angles ...
  1787 angles
Finding 1-2 1-3 1-4 neighbors ...
  special bond factors lj:    0        0        0       
  special bond factors coul:  0        0        0       
     3 = max # of 1-2 neighbors
     6 = max # of 1-3 neighbors
    18 = max # of 1-4 neighbors
    17 = max # of special neighbors
  special bonds CPU = 0.002 seconds
  read_data CPU = 0.107 seconds
180 atoms in group carbon
5361 atoms in group water
1787 atoms in group oxygen
3574 atoms in group hydrogen
60 atoms in group c60_1
60 atoms in group c60_2
60 atoms in group c60_3
WARNING: Detected non-ASCII characters in input. Will try to continue by replacing with ASCII equivalents where known. (src/input.cpp:479)
ïêïêïêïêïêïêïêïêïêïêïêïêïêïêïêïêïêïêïêïêïêïêïêïêïêïêïêïêïêïêïêïêïêïêïêïêïêïêïêïêïêïêïêïêïêïêïêïêïêïêïêïêïêïêïêïêïêïêïêïêïêïêïêïêïêïêïêïêïêïêïêïêïêïêïêïê
SYSTEM INFORMATION:
  Epsilon (O-C): 0.55 kcal/mol
  Random seed:   42
  Timestep:      2.0 fs (with SHAKE constraints)
  PPPM grid:     40ó40ó40 (LOCKED to prevent artifacts)
ïêïêïêïêïêïêïêïêïêïêïêïêïêïêïêïêïêïêïêïêïêïêïêïêïêïêïêïêïêïêïêïêïêïêïêïêïêïêïêïêïêïêïêïêïêïêïêïêïêïêïêïêïêïêïêïêïêïêïêïêïêïêïêïêïêïêïêïêïêïêïêïêïêïêïêïê

===== STAGE 0: Gentle Minimization (removing any overlaps) =====
Using CPU pair style for numerical stability during minimization


CITE-CITE-CITE-CITE-CITE-CITE-CITE-CITE-CITE-CITE-CITE-CITE-CITE

Your simulation uses code contributions which should be cited:
- GPU package (short-range, long-range and three-body potentials): doi:10.1016/j.cpc.2010.12.021, doi:10.1016/j.cpc.2011.10.012, doi:10.1016/j.cpc.2013.08.002, doi:10.1016/j.commatsci.2014.10.068, doi:10.1016/j.cpc.2016.10.020, doi:10.3233/APC200086
The log file lists these citations in BibTeX format.

CITE-CITE-CITE-CITE-CITE-CITE-CITE-CITE-CITE-CITE-CITE-CITE-CITE

Switching to 'neigh_modify every 1 delay 0 check yes' setting during minimization
PPPM initialization ...
  extracting TIP4P info from pair style
  using 12-bit tables for long-range coulomb
  G vector (1/distance) = 0.28512662
  grid = 50 50 50
  stencil order = 5
  estimated absolute RMS force accuracy = 0.00038934319
  estimated relative force accuracy = 1.1724955e-06
  using double precision FFTW3
  3d grid and FFT values/proc = 185193 125000

--------------------------------------------------------------------------
- Using acceleration for lj/cut/tip4p/long/gpu:
-  with 1 proc(s) per device.
-  with 5 thread(s) per proc.
-  Horizontal vector operations: ENABLED
-  Shared memory system: No
--------------------------------------------------------------------------
Device 0: Quadro RTX 6000, 72 CUs, 23/23 GB, 1.8 GHZ (Mixed Precision)
--------------------------------------------------------------------------

Initializing Device and compiling on process 0...Done.
Initializing Device 0 on core 0...Done.

Generated 0 of 3 mixed pair_coeff terms from geometric mixing rule
Setting up cg style minimization ...
  Unit style    : real
  Current step  : 0
Per MPI rank memory allocation (min/avg/max) = 51.83 | 51.83 | 51.83 Mbytes
   Step          Temp          Press          Volume         PotEng         KinEng         TotEng        Density    
         0   36.495381      27214.662      64000         -23237.081      602.67332     -22634.408      0.89136653   
        10   36.495381     -19488.422      64000         -142259.57      602.67332     -141656.9       0.89136653   
Loop time of 0.169547 on 5 procs for 10 steps with 5541 atoms

477.6% CPU use with 1 MPI tasks x 5 OpenMP threads

Minimization stats:
  Stopping criterion = max iterations
  Energy initial, next-to-last, final = 
     -23237.0811861775   -124568.69584818   -142259.57082712
  Force two-norm initial, final = 2152.6692 6845.3788
  Force max component initial, final = 49.702251 356.51251
  Final line search alpha, max atom move = 0.00038449764 0.13707822
  Iterations, force evaluations = 10 10

MPI task timing breakdown:
Section |  min time  |  avg time  |  max time  |%varavg| %total
---------------------------------------------------------------
Pair    | 0.013034   | 0.013034   | 0.013034   |   0.0 |  7.69
Bond    | 0.0015812  | 0.0015812  | 0.0015812  |   0.0 |  0.93
Kspace  | 0.14964    | 0.14964    | 0.14964    |   0.0 | 88.26
Neigh   | 0          | 0          | 0          |   0.0 |  0.00
Comm    | 0.0024695  | 0.0024695  | 0.0024695  |   0.0 |  1.46
Output  | 7.5315e-05 | 7.5315e-05 | 7.5315e-05 |   0.0 |  0.04
Modify  | 8.64e-07   | 8.64e-07   | 8.64e-07   |   0.0 |  0.00
Other   |            | 0.002742   |            |       |  1.62

Nlocal:           5541 ave        5541 max        5541 min
Histogram: 1 0 0 0 0 0 0 0 0 0
Nghost:          33839 ave       33839 max       33839 min
Histogram: 1 0 0 0 0 0 0 0 0 0
Neighs:              0 ave           0 max           0 min
Histogram: 1 0 0 0 0 0 0 0 0 0

Total # of neighbors = 0
Ave neighs/atom = 0
Ave special neighs/atom = 2.4872767
Neighbor list builds = 0
Dangerous builds = 0
Minimization complete. PE = -142259.57082712 kcal/mol (was -23,217)

Applying SHAKE constraints...
Finding SHAKE clusters ...
       0 = # of size 2 clusters
       0 = # of size 3 clusters
       0 = # of size 4 clusters
    1787 = # of frozen angles
  find clusters CPU = 0.001 seconds
SHAKE constraint verification:
  Expected: ~2000 water molecules with constrained bonds and angles
  Check minimization output for cluster sizes

GPU Acceleration Status:
  úì Pair forces (LJ):      GPU (lj/cut/tip4p/long/gpu)
  úì Coulomb (PPPM):        CPU (pppm/tip4p) - GPU suffix not available
  úì Neighbor lists:        GPU (neigh yes)
  Üí Expected speedup:      2-3ó vs CPU-only version (pair forces only)

===== STAGE 1: NVT Thermalization (50 ps, GPU) =====
Objective: Reach 300K while maintaining initial density
PPPM initialization ...
  extracting TIP4P info from pair style
  using 12-bit tables for long-range coulomb
  G vector (1/distance) = 0.28512662
  grid = 50 50 50
  stencil order = 5
  estimated absolute RMS force accuracy = 0.00038934319
  estimated relative force accuracy = 1.1724955e-06
  using double precision FFTW3
  3d grid and FFT values/proc = 185193 125000


---------------------------------------------------------------------
      Device Time Info (average): 
---------------------------------------------------------------------
Data Transfer:   0.0015 s.
Neighbor copy:   0.0007 s.
Neighbor build:  0.0010 s.
Force calc:      0.0303 s.
Device Overhead: 0.0018 s.
CPU Neighbor:    0.0127 s.
CPU Cast/Pack:   0.0015 s.
CPU Driver_Time: 0.0007 s.
CPU Idle_Time:   0.0001 s.
Average split:   1.0000.
Max Mem / Proc:  98.37 MB.
Prefetch mode:   None.
Vector width:    32.
Lanes / atom:    8.
Pair block:      256.
Neigh block:     128.
Neigh mode:      Hybrid (binning on host) with subgroup support
---------------------------------------------------------------------


--------------------------------------------------------------------------
- Using acceleration for lj/cut/tip4p/long/gpu:
-  with 1 proc(s) per device.
-  with 5 thread(s) per proc.
-  Horizontal vector operations: ENABLED
-  Shared memory system: No
--------------------------------------------------------------------------
Device 0: Quadro RTX 6000, 72 CUs, 22/23 GB, 1.8 GHZ (Mixed Precision)
--------------------------------------------------------------------------

Initializing Device and compiling on process 0...Done.
Initializing Device 0 on core 0...Done.

Generated 0 of 3 mixed pair_coeff terms from geometric mixing rule
Setting up Verlet run ...
  Unit style    : real
  Current step  : 10
  Time step     : 2
Per MPI rank memory allocation (min/avg/max) = 51.29 | 51.29 | 51.29 Mbytes
   Step          Temp          Press          Volume         PotEng         KinEng         TotEng        Density    
        10   300           -112583.11      64000         -142259.57      3356.094      -138903.48      0.89136653   
      1000   298.76371     -1068.2196      64000         -20027.682      3342.2637     -16685.419      0.89136653   
      2000   296.46743     -1185.1627      64000         -20683.746      3316.5753     -17367.171      0.89136653   
      3000   303.01657     -791.66275      64000         -20697.83       3389.8403     -17307.989      0.89136653   
      4000   301.13373     -1847.6036      64000         -20842.393      3368.7771     -17473.616      0.89136653   
      5000   303.5085      -1294.0638      64000         -20841.308      3395.3435     -17445.965      0.89136653   
      6000   299.23086     -1499.3956      64000         -20810.228      3347.4897     -17462.738      0.89136653   
      7000   295.42472     -1390.8459      64000         -20825.207      3304.9105     -17520.296      0.89136653   
      8000   301.81951     -1088.6458      64000         -20678.907      3376.4488     -17302.459      0.89136653   
      9000   292.38922     -801.38271      64000         -20715.313      3270.9524     -17444.361      0.89136653   
     10000   307.06117     -1087.7785      64000         -20665.472      3435.0872     -17230.384      0.89136653   
     11000   302.18133     -457.86392      64000         -20706.781      3380.4965     -17326.284      0.89136653   
     12000   302.72666     -751.37463      64000         -20822.999      3386.5972     -17436.402      0.89136653   
     13000   296.32022     -1252.5798      64000         -20844.585      3314.9285     -17529.656      0.89136653   
     14000   293.36959     -1251.7901      64000         -20912.473      3281.9198     -17630.554      0.89136653   
     15000   292.63195     -1539.8745      64000         -20636.327      3273.6678     -17362.66       0.89136653   
     16000   299.6831      -731.0577       64000         -20800.029      3352.5489     -17447.48       0.89136653   
     17000   303.15388     -1011.0334      64000         -20882.299      3391.3764     -17490.923      0.89136653   
     18000   304.71038     -670.83534      64000         -20755.523      3408.789      -17346.734      0.89136653   
     19000   297.83923     -1721.9545      64000         -20787.64       3331.9216     -17455.719      0.89136653   
     20000   296.31695     -791.0388       64000         -20694.858      3314.8918     -17379.966      0.89136653   
     21000   295.99233     -1058.1399      64000         -20724.312      3311.2603     -17413.051      0.89136653   
     22000   302.87109     -1390.2811      64000         -20754.267      3388.2129     -17366.054      0.89136653   
     23000   299.5392      -1121.0843      64000         -20806.491      3350.939      -17455.552      0.89136653   
     24000   296.30474     -813.1546       64000         -20854.923      3314.7552     -17540.168      0.89136653   
     25000   297.35686     -1396.2049      64000         -20804.089      3326.5253     -17477.564      0.89136653   
     25010   296.29688     -975.98033      64000         -20774.493      3314.6673     -17459.825      0.89136653   
Loop time of 727.97 on 5 procs for 25000 steps with 5541 atoms

Performance: 5.934 ns/day, 4.044 hours/ns, 34.342 timesteps/s, 190.289 katom-step/s
441.8% CPU use with 1 MPI tasks x 5 OpenMP threads

MPI task timing breakdown:
Section |  min time  |  avg time  |  max time  |%varavg| %total
---------------------------------------------------------------
Pair    | 22.73      | 22.73      | 22.73      |   0.0 |  3.12
Bond    | 0.2788     | 0.2788     | 0.2788     |   0.0 |  0.04
Kspace  | 664.51     | 664.51     | 664.51     |   0.0 | 91.28
Neigh   | 0.076887   | 0.076887   | 0.076887   |   0.0 |  0.01
Comm    | 12.248     | 12.248     | 12.248     |   0.0 |  1.68
Output  | 0.10971    | 0.10971    | 0.10971    |   0.0 |  0.02
Modify  | 24.523     | 24.523     | 24.523     |   0.0 |  3.37
Other   |            | 3.497      |            |       |  0.48

Nlocal:           5541 ave        5541 max        5541 min
Histogram: 1 0 0 0 0 0 0 0 0 0
Nghost:          33239 ave       33239 max       33239 min
Histogram: 1 0 0 0 0 0 0 0 0 0
Neighs:              0 ave           0 max           0 min
Histogram: 1 0 0 0 0 0 0 0 0 0

Total # of neighbors = 0
Ave neighs/atom = 0
Ave special neighs/atom = 2.4872767
Neighbor list builds = 2331
Dangerous builds = 1
System init for write_restart ...
PPPM initialization ...
  extracting TIP4P info from pair style
  using 12-bit tables for long-range coulomb
  G vector (1/distance) = 0.28512662
  grid = 50 50 50
  stencil order = 5
  estimated absolute RMS force accuracy = 0.00038934319
  estimated relative force accuracy = 1.1724955e-06
  using double precision FFTW3
  3d grid and FFT values/proc = 185193 125000


---------------------------------------------------------------------
      Device Time Info (average): 
---------------------------------------------------------------------
Data Transfer:   2.7390 s.
Neighbor copy:   0.6474 s.
Neighbor build:  2.6452 s.
Force calc:      21.8089 s.
Device Overhead: 1.8822 s.
CPU Neighbor:    2.4145 s.
CPU Cast/Pack:   5.2809 s.
CPU Driver_Time: 0.6741 s.
CPU Idle_Time:   0.3631 s.
Average split:   1.0000.
Max Mem / Proc:  97.97 MB.
Prefetch mode:   None.
Vector width:    32.
Lanes / atom:    8.
Pair block:      256.
Neigh block:     128.
Neigh mode:      Hybrid (binning on host) with subgroup support
---------------------------------------------------------------------


--------------------------------------------------------------------------
- Using acceleration for lj/cut/tip4p/long/gpu:
-  with 1 proc(s) per device.
-  with 5 thread(s) per proc.
-  Horizontal vector operations: ENABLED
-  Shared memory system: No
--------------------------------------------------------------------------
Device 0: Quadro RTX 6000, 72 CUs, 20/23 GB, 1.8 GHZ (Mixed Precision)
--------------------------------------------------------------------------

Initializing Device and compiling on process 0...Done.
Initializing Device 0 on core 0...Done.

Generated 0 of 3 mixed pair_coeff terms from geometric mixing rule
NVT complete. Temperature: 296.296880311818 K (target: 300K)
úì Checkpoint 1 PASSED: Density = 0.891366525253079 g/cm≥

===== STAGE 1.5: Pre-Equilibration at 100 atm (50 ps, GPU) =====
üîß CRITICAL FIX: Reducing initial pressure before main ramp
Objective: Equilibrate volume at moderate pressure to prevent PPPM artifacts

Why this is needed:
  - NVT creates high pressure (~800 atm) in fixed volume
  - Direct ramp from 800Üí1 atm caused 169k atm spike (PPPM grid change)
  - Pre-equilibrating at 100 atm reduces initial pressure safely
  - Main ramp (100Üí1 atm) will then cause only ~5% box expansion
PPPM initialization ...
  extracting TIP4P info from pair style
  using 12-bit tables for long-range coulomb
  G vector (1/distance) = 0.28512662
  grid = 50 50 50
  stencil order = 5
  estimated absolute RMS force accuracy = 0.00038934319
  estimated relative force accuracy = 1.1724955e-06
  using double precision FFTW3
  3d grid and FFT values/proc = 185193 125000

--------------------------------------------------------------------------
- Using acceleration for lj/cut/tip4p/long/gpu:
-  with 1 proc(s) per device.
-  with 5 thread(s) per proc.
-  Horizontal vector operations: ENABLED
-  Shared memory system: No
--------------------------------------------------------------------------
Device 0: Quadro RTX 6000, 72 CUs, 20/23 GB, 1.8 GHZ (Mixed Precision)
--------------------------------------------------------------------------

Initializing Device and compiling on process 0...Done.
Initializing Device 0 on core 0...Done.

Generated 0 of 3 mixed pair_coeff terms from geometric mixing rule
Setting up Verlet run ...
  Unit style    : real
  Current step  : 25010
  Time step     : 2
Per MPI rank memory allocation (min/avg/max) = 51.3 | 51.3 | 51.3 Mbytes
   Step          Temp          Press          Volume         PotEng         KinEng         TotEng        Density    
     25010   296.29688     -975.371        64000         -20774.493      3314.6673     -17459.825      0.89136653   
     26000   305.31246     -886.71173      61403.904     -20855.54       3415.5244     -17440.016      0.92905262   
     27000   311.46331     -642.49366      59458.23      -21001.369      3484.3339     -17517.035      0.95945436   
     28000   292.21568     -562.64636      58147.941     -21008.104      3269.011      -17739.093      0.98107442   
     29000   302.15359      70.07015       57295.146     -21056.934      3380.1862     -17676.748      0.99567698   
     30000   307.15977      137.275        56017.693     -21017.605      3436.1903     -17581.414      1.0183828    
     31000   295.63112     -201.60959      54971.275     -21162.206      3307.2194     -17854.987      1.0377685    
     32000   297.4897       62.374643      54447.088     -21111.257      3328.0114     -17783.246      1.0477596    
     33000   303.30156     -138.31311      54575.122     -21182.514      3393.0285     -17789.486      1.0453015    
     34000   304.29753     -241.38324      54324.232     -21048.636      3404.1704     -17644.465      1.0501291    
     35000   307.82955      235.64292      53857.246     -21189.694      3443.6831     -17746.011      1.0592346    
     36000   300.1298       386.64695      54050.373     -21102.971      3357.5461     -17745.425      1.0554498    
     37000   300.70023      218.14931      54321.228     -21222.314      3363.9275     -17858.387      1.0501872    
     38000   298.04932      389.11928      54559.034     -21111.005      3334.2718     -17776.733      1.0456097    
     39000   305.29238     -341.96972      54138.789     -21046.834      3415.2998     -17631.534      1.0537261    
     40000   295.40229      97.307842      53744.701     -21131.262      3304.6595     -17826.602      1.0614527    
     41000   304.20803     -761.83691      54087.652     -21105.361      3403.1692     -17702.192      1.0547224    
     42000   301.58843     -851.51496      54019.378     -21177.135      3373.8638     -17803.272      1.0560554    
     43000   299.33021      387.38254      54068.117     -21067.995      3348.6011     -17719.394      1.0551035    
     44000   296.38875      497.36687      54434.274     -21126.297      3315.695      -17810.602      1.0480062    
     45000   305.74312      714.97131      54232.63      -21207.34       3420.3422     -17786.998      1.0519029    
     46000   291.58657     -86.972614      54071.048     -21040.305      3261.9732     -17778.332      1.0550463    
     47000   298.23942      203.40693      54583.55      -21083.637      3336.3985     -17747.238      1.0451401    
     48000   294.81242     -278.63276      53950.4       -21187.035      3298.0606     -17888.975      1.0574056    
     49000   297.726        148.34105      53673.76      -21269.679      3330.6548     -17939.024      1.0628556    
     50000   301.61197     -764.04696      53865.727     -21138.225      3374.1271     -17764.098      1.0590678    
     50010   300.84985     -433.94331      53862.561     -21124.487      3365.6013     -17758.885      1.0591301    
Loop time of 1108.99 on 5 procs for 25000 steps with 5541 atoms

Performance: 3.895 ns/day, 6.161 hours/ns, 22.543 timesteps/s, 124.911 katom-step/s
339.4% CPU use with 1 MPI tasks x 5 OpenMP threads

MPI task timing breakdown:
Section |  min time  |  avg time  |  max time  |%varavg| %total
---------------------------------------------------------------
Pair    | 40.517     | 40.517     | 40.517     |   0.0 |  3.65
Bond    | 0.4334     | 0.4334     | 0.4334     |   0.0 |  0.04
Kspace  | 562.85     | 562.85     | 562.85     |   0.0 | 50.75
Neigh   | 0.062798   | 0.062798   | 0.062798   |   0.0 |  0.01
Comm    | 11.817     | 11.817     | 11.817     |   0.0 |  1.07
Output  | 0.016776   | 0.016776   | 0.016776   |   0.0 |  0.00
Modify  | 488.8      | 488.8      | 488.8      |   0.0 | 44.08
Other   |            | 4.497      |            |       |  0.41

Nlocal:           5541 ave        5541 max        5541 min
Histogram: 1 0 0 0 0 0 0 0 0 0
Nghost:          35845 ave       35845 max       35845 min
Histogram: 1 0 0 0 0 0 0 0 0 0
Neighs:              0 ave           0 max           0 min
Histogram: 1 0 0 0 0 0 0 0 0 0

Total # of neighbors = 0
Ave neighs/atom = 0
Ave special neighs/atom = 2.4872767
Neighbor list builds = 2327
Dangerous builds = 0
System init for write_restart ...
PPPM initialization ...
  extracting TIP4P info from pair style
  using 12-bit tables for long-range coulomb
  G vector (1/distance) = 0.28845851
  grid = 50 50 50
  stencil order = 5
  estimated absolute RMS force accuracy = 0.00032738992
  estimated relative force accuracy = 9.8592503e-07
  using double precision FFTW3
  3d grid and FFT values/proc = 205379 125000


---------------------------------------------------------------------
      Device Time Info (average): 
---------------------------------------------------------------------
Data Transfer:   3.2627 s.
Neighbor copy:   0.5983 s.
Neighbor build:  4.8572 s.
Force calc:      85.0280 s.
Device Overhead: 0.7660 s.
CPU Neighbor:    2.0839 s.
CPU Cast/Pack:   7.7033 s.
CPU Driver_Time: 0.6868 s.
CPU Idle_Time:   0.3087 s.
Average split:   1.0000.
Max Mem / Proc:  228.50 MB.
Prefetch mode:   None.
Vector width:    32.
Lanes / atom:    8.
Pair block:      256.
Neigh block:     128.
Neigh mode:      Hybrid (binning on host) with subgroup support
---------------------------------------------------------------------


--------------------------------------------------------------------------
- Using acceleration for lj/cut/tip4p/long/gpu:
-  with 1 proc(s) per device.
-  with 5 thread(s) per proc.
-  Horizontal vector operations: ENABLED
-  Shared memory system: No
--------------------------------------------------------------------------
Device 0: Quadro RTX 6000, 72 CUs, 20/23 GB, 1.8 GHZ (Mixed Precision)
--------------------------------------------------------------------------

Initializing Device and compiling on process 0...Done.
Initializing Device 0 on core 0...Done.

Generated 0 of 3 mixed pair_coeff terms from geometric mixing rule
System init for write_data ...
PPPM initialization ...
  extracting TIP4P info from pair style
  using 12-bit tables for long-range coulomb
  G vector (1/distance) = 0.28845851
  grid = 50 50 50
  stencil order = 5
  estimated absolute RMS force accuracy = 0.00032738992
  estimated relative force accuracy = 9.8592503e-07
  using double precision FFTW3
  3d grid and FFT values/proc = 205379 125000

--------------------------------------------------------------------------
- Using acceleration for lj/cut/tip4p/long/gpu:
-  with 1 proc(s) per device.
-  with 5 thread(s) per proc.
-  Horizontal vector operations: ENABLED
-  Shared memory system: No
--------------------------------------------------------------------------
Device 0: Quadro RTX 6000, 72 CUs, 20/23 GB, 1.8 GHZ (Mixed Precision)
--------------------------------------------------------------------------

Initializing Device and compiling on process 0...Done.
Initializing Device 0 on core 0...Done.

Generated 0 of 3 mixed pair_coeff terms from geometric mixing rule
WARNING: Not all mixed pair coeffs generated from mixing. Use write_data with 'pair ij' option to store all pair coeffs. (src/write_data.cpp:364)

Pre-equilibration complete:
  Density:  1.05913006087791 g/cm≥
  Pressure: -433.943305897726 atm
  Volume:   53862.5610993522 Ö≥
úì Checkpoint 2 PASSED: System stable at 100 atm

===== STAGE 2: Gentle Pressure Ramp (100 ps, GPU) =====
Ramping pressure from 100 atm Üí 1 atm with drag damping

COMPARISON TO FAILED VERSION:
  OLD: 50 atm Üí 1 atm, no pre-equil Üí 169,712 atm spike at step 51k
  NEW: 100 atm Üí 1 atm, with pre-equil Üí should be smooth (< 500 atm max)
PPPM initialization ...
  extracting TIP4P info from pair style
  using 12-bit tables for long-range coulomb
  G vector (1/distance) = 0.28845851
  grid = 50 50 50
  stencil order = 5
  estimated absolute RMS force accuracy = 0.00032738992
  estimated relative force accuracy = 9.8592503e-07
  using double precision FFTW3
  3d grid and FFT values/proc = 205379 125000

--------------------------------------------------------------------------
- Using acceleration for lj/cut/tip4p/long/gpu:
-  with 1 proc(s) per device.
-  with 5 thread(s) per proc.
-  Horizontal vector operations: ENABLED
-  Shared memory system: No
--------------------------------------------------------------------------
Device 0: Quadro RTX 6000, 72 CUs, 20/23 GB, 1.8 GHZ (Mixed Precision)
--------------------------------------------------------------------------

Initializing Device and compiling on process 0...Done.
Initializing Device 0 on core 0...Done.

Generated 0 of 3 mixed pair_coeff terms from geometric mixing rule
Setting up Verlet run ...
  Unit style    : real
  Current step  : 50010
  Time step     : 2
Per MPI rank memory allocation (min/avg/max) = 52.14 | 52.14 | 52.14 Mbytes
   Step          Temp          Press          Volume         PotEng         KinEng         TotEng        Density    
     50010   300.84985     -436.74675      53862.561     -21124.431      3365.6013     -17758.83       1.0591301    
     50500   302.70284      99.098743      53928.267     -21196.548      3386.3306     -17810.217      1.0578396    
     51000   296.64565     -237.60374      54385.526     -21101.192      3318.5689     -17782.623      1.0489456    
     51500   297.67696     -59.677246      54055.613     -21098.684      3330.1063     -17768.578      1.0553475    
     52000   296.79743      439.14022      54361.884     -21086.136      3320.267      -17765.869      1.0494018    
     52500   298.94675      393.63168      54521.954     -21144.949      3344.3114     -17800.637      1.0463208    
     53000   299.84101      135.37394      54240.19      -21212.889      3354.3154     -17858.574      1.0517562    
     53500   298.85382     -624.37707      54299.196     -21204.986      3343.2717     -17861.715      1.0506133    
     54000   297.90148      39.84131       54369.992     -21174.697      3332.6179     -17842.079      1.0492453    
     54500   297.65682      390.03021      54445.17      -21151.563      3329.881      -17821.682      1.0477965    
     55000   296.90314     -185.91132      54415.191     -21173.455      3321.4496     -17852.006      1.0483737    
     55500   302.32369     -406.88654      54316.069     -21231.365      3382.0891     -17849.276      1.0502869    
     56000   301.18243      387.38008      53943.715     -21190.47       3369.3219     -17821.148      1.0575367    
     56500   298.63783     -192.59372      54211.279     -21177.464      3340.8555     -17836.609      1.0523171    
     57000   299.0301      -422.89963      54019.515     -21191.646      3345.2437     -17846.402      1.0560528    
     57500   299.38215     -14.479716      54412.213     -21163.647      3349.1822     -17814.465      1.0484311    
     58000   297.89551      289.38143      54394.958     -21111.049      3332.5512     -17778.498      1.0487637    
     58500   298.1412      -285.93673      54003.406     -21046.825      3335.2996     -17711.525      1.0563678    
     59000   300.5294       246.20343      54003.747     -21138.073      3362.0164     -17776.057      1.0563611    
     59500   297.19004      180.80435      54006.017     -21084.129      3324.6591     -17759.47       1.0563167    
     60000   302.47004     -43.232262      53975.576     -21206.901      3383.7263     -17823.175      1.0569124    
     60500   302.83943      286.22628      54040.569     -21240.943      3387.8587     -17853.084      1.0556413    
     61000   294.3502       630.10744      54113.525     -21088.932      3292.8898     -17796.042      1.0542181    
     61500   298.46823      898.47739      54187.399     -21077.898      3338.9581     -17738.94       1.0527809    
     62000   304.81627     -232.87494      54361.333     -21163.402      3409.9735     -17753.429      1.0494124    
     62500   307.08026      72.102014      54127.938     -21201.363      3435.3007     -17766.062      1.0539374    
     63000   300.28795      364.11078      54197.052     -21160.424      3359.3153     -17801.108      1.0525934    
     63500   298.62455      574.3985       54237.216     -21149.473      3340.7069     -17808.766      1.0518139    
     64000   300.62737      298.80425      54309.073     -21180.583      3363.1124     -17817.471      1.0504222    
     64500   299.23901      333.61748      54519.937     -21172.906      3347.5808     -17825.325      1.0463596    
     65000   293.57209     -633.79603      54066.244     -21120.958      3284.1852     -17836.773      1.05514      
     65500   301.31144      543.61711      53695.963     -21233.134      3370.7651     -17862.368      1.0624161    
     66000   301.14886     -31.919401      53679.142     -21233.205      3368.9464     -17864.259      1.062749     
     66500   298.63632     -276.05         53895.919     -21174.967      3340.8386     -17834.128      1.0584745    
     67000   296.43545     -256.43918      54079.281     -21159.449      3316.2175     -17843.232      1.0548856    
     67500   297.08483      509.5355       54077.874     -21131.799      3323.4821     -17808.317      1.0549131    
     68000   298.61957      3.9428485      54315.812     -21141.611      3340.6511     -17800.96       1.0502919    
     68500   299.17862     -237.17334      54140.047     -21112.142      3346.9052     -17765.237      1.0537017    
     69000   302.63359      745.76056      53997.139     -21140.508      3385.556      -17754.952      1.0564904    
     69500   300.04032      98.114285      54141.74      -21088.161      3356.5451     -17731.616      1.0536687    
     70000   294.37151      247.92263      54148.129     -21024.395      3293.1282     -17731.266      1.0535444    
     70500   301.6424       670.57492      53646.638     -21133.595      3374.4676     -17759.128      1.063393     
     71000   296.93835     -673.64405      54169.254     -21111.967      3321.8435     -17790.124      1.0531335    
     71500   299.5634      -633.61024      53760.551     -21132.385      3351.2098     -17781.175      1.0611398    
     72000   298.19742     -191.49671      54123.927     -21123.543      3335.9286     -17787.614      1.0540155    
     72500   303.44275      207.35791      53640.588     -21204.824      3394.608      -17810.216      1.0635129    
     73000   300.32817      85.276784      53798.759     -21141.413      3359.7653     -17781.648      1.0603861    
     73500   299.16423      720.4175       54005.304     -21183.994      3346.7443     -17837.25       1.0563306    
     74000   301.42327     -378.87522      54125.083     -21152.629      3372.0161     -17780.613      1.053993     
     74500   299.36601      171.88633      54153.872     -21167.037      3349.0015     -17818.035      1.0534327    
     75000   301.94317     -837.24208      54456.361     -21198.28       3377.8322     -17820.448      1.0475812    
     75500   303.42884     -226.91658      54318.906     -21219.151      3394.4524     -17824.699      1.0502321    
     76000   296.1855       176.01436      54333.415     -21142.778      3313.4213     -17829.357      1.0499516    
     76500   298.31979      637.01579      54273.947     -21149.779      3337.2975     -17812.481      1.0511021    
     77000   305.1263       36.927766      54479.147     -21251.915      3413.4418     -17838.473      1.047143     
     77500   300.43577      968.81987      54258.143     -21158.425      3360.969      -17797.456      1.0514082    
     78000   304.93506      290.9509       54362.524     -21217.898      3411.3024     -17806.595      1.0493894    
     78500   300.17374     -315.28724      54461.264     -21161.492      3358.0376     -17803.454      1.0474868    
     79000   307.82905     -31.190083      54209.387     -21257.164      3443.6775     -17813.486      1.0523539    
     79500   301.4959       471.44201      54181.208     -21207.672      3372.8287     -17834.843      1.0529012    
     80000   297.53545     -452.65964      53982.693     -21115.948      3328.5232     -17787.425      1.0567731    
     80500   299.22053     -230.9793       54322.888     -21134.34       3347.3741     -17786.966      1.0501551    
     81000   299.32376     -604.00338      54526.126     -21101.281      3348.529      -17752.752      1.0462408    
     81500   299.32729     -234.65815      54352.237     -21162.611      3348.5685     -17814.043      1.049588     
     82000   295.82176      337.0975       54257.262     -21094.071      3309.3522     -17784.719      1.0514253    
     82500   304.07466     -8.9546545      53977.668     -21197.395      3401.6771     -17795.718      1.0568715    
     83000   299.31497      549.52241      54130.853     -21160.807      3348.4306     -17812.376      1.0538806    
     83500   301.19586      25.641823      54467.524     -21159.108      3369.472      -17789.636      1.0473665    
     84000   299.66239      74.258082      54294.914     -21145.261      3352.3171     -17792.944      1.0506962    
     84500   305.37683     -188.65116      54400.108     -21216.256      3416.2445     -17800.012      1.0486644    
     85000   296.40453     -28.176682      54381.88      -21134.061      3315.8716     -17818.189      1.0490159    
     85500   297.14463     -151.45745      54434.924     -21163.292      3324.1511     -17839.141      1.0479937    
     86000   294.833        677.95112      54484.358     -21139.436      3298.291      -17841.145      1.0470429    
     86500   303.9434       26.754011      54290.986     -21207.594      3400.2088     -17807.385      1.0507722    
     87000   300.88275     -14.987765      54040.91      -21188.883      3365.9694     -17822.913      1.0556347    
     87500   304.00756     -483.8          54319.191     -21192.624      3400.9265     -17791.698      1.0502266    
     88000   304.47745     -743.78679      54324.727     -21166.456      3406.1832     -17760.272      1.0501195    
     88500   296.70637      435.15897      54162.233     -21060.419      3319.2483     -17741.171      1.05327      
     89000   301.08361     -176.19839      54214.442     -21170.403      3368.2163     -17802.187      1.0522557    
     89500   297.22989      252.92485      54162.845     -21081.573      3325.1049     -17756.468      1.0532581    
     90000   303.85944     -698.86837      53989.05      -21170.715      3399.2695     -17771.445      1.0566487    
     90500   300.68364      154.1873       54272.809     -21185.351      3363.7419     -17821.609      1.0511241    
     91000   298.02251      533.92283      54133.617     -21058.703      3333.9719     -17724.731      1.0538268    
     91500   303.36871      80.412117      53829.664     -21147.736      3393.7797     -17753.956      1.0597773    
     92000   301.32103      572.50638      54068.268     -21117.759      3370.8724     -17746.887      1.0551005    
     92500   302.30216     -458.44603      54652.339     -21223.265      3381.8483     -17841.417      1.0438246    
     93000   300.95381      176.73371      54288.235     -21155.038      3366.7643     -17788.274      1.0508254    
     93500   300.05512      9.1949097      54431.108     -21103.838      3356.7106     -17747.128      1.0480672    
     94000   301.36433      735.69271      54253.733     -21121.805      3371.3567     -17750.448      1.0514937    
     94500   299.72443      20.085196      54030.138     -21172.237      3353.0113     -17819.225      1.0558451    
     95000   299.34341      801.07887      54047.722     -21161.412      3348.7488     -17812.663      1.0555016    
     95500   300.2317      -172.12616      54211.985     -21164.083      3358.6861     -17805.397      1.0523034    
     96000   296.50546      120.08243      53908.109     -21132.902      3317.0007     -17815.901      1.0582352    
     96500   302.96898     -61.775479      53723.224     -21129.278      3389.3079     -17739.97       1.061877     
     97000   305.35339      178.67113      54137.007     -21217.332      3415.9823     -17801.35       1.0537608    
     97500   301.39586     -956.79631      54237.616     -21152.388      3371.7094     -17780.678      1.0518061    
     98000   303.62811     -307.38701      54322.609     -21197.701      3396.6816     -17801.019      1.0501605    
     98500   303.87621     -758.93166      54258.037     -21237.506      3399.4571     -17838.049      1.0514103    
     99000   299.5921       470.29458      53990.87      -21173.294      3351.5309     -17821.763      1.056613     
     99500   302.6567      -490.24567      53946.557     -21183.326      3385.8144     -17797.511      1.057481     
    100000   309.66521     -55.535914      54238.286     -21264.445      3464.2186     -17800.226      1.0517931    
    100010   303.8517       371.58068      54237.573     -21205.328      3399.1829     -17806.145      1.051807     
Loop time of 2209.73 on 5 procs for 50000 steps with 5541 atoms

Performance: 3.910 ns/day, 6.138 hours/ns, 22.627 timesteps/s, 125.377 katom-step/s
341.7% CPU use with 1 MPI tasks x 5 OpenMP threads

MPI task timing breakdown:
Section |  min time  |  avg time  |  max time  |%varavg| %total
---------------------------------------------------------------
Pair    | 79.295     | 79.295     | 79.295     |   0.0 |  3.59
Bond    | 0.84579    | 0.84579    | 0.84579    |   0.0 |  0.04
Kspace  | 1153.5     | 1153.5     | 1153.5     |   0.0 | 52.20
Neigh   | 0.12736    | 0.12736    | 0.12736    |   0.0 |  0.01
Comm    | 23.852     | 23.852     | 23.852     |   0.0 |  1.08
Output  | 0.060864   | 0.060864   | 0.060864   |   0.0 |  0.00
Modify  | 943        | 943        | 943        |   0.0 | 42.67
Other   |            | 9.093      |            |       |  0.41

Nlocal:           5541 ave        5541 max        5541 min
Histogram: 1 0 0 0 0 0 0 0 0 0
Nghost:          35661 ave       35661 max       35661 min
Histogram: 1 0 0 0 0 0 0 0 0 0
Neighs:              0 ave           0 max           0 min
Histogram: 1 0 0 0 0 0 0 0 0 0

Total # of neighbors = 0
Ave neighs/atom = 0
Ave special neighs/atom = 2.4872767
Neighbor list builds = 4645
Dangerous builds = 0
System init for write_restart ...
PPPM initialization ...
  extracting TIP4P info from pair style
  using 12-bit tables for long-range coulomb
  G vector (1/distance) = 0.28833625
  grid = 50 50 50
  stencil order = 5
  estimated absolute RMS force accuracy = 0.00032955811
  estimated relative force accuracy = 9.9245447e-07
  using double precision FFTW3
  3d grid and FFT values/proc = 205379 125000


---------------------------------------------------------------------
      Device Time Info (average): 
---------------------------------------------------------------------
Data Transfer:   6.5482 s.
Neighbor copy:   1.1879 s.
Neighbor build:  9.2215 s.
Force calc:      171.5646 s.
Device Overhead: 1.3456 s.
CPU Neighbor:    4.0372 s.
CPU Cast/Pack:   15.5202 s.
CPU Driver_Time: 1.1940 s.
CPU Idle_Time:   0.6174 s.
Average split:   1.0000.
Max Mem / Proc:  133.24 MB.
Prefetch mode:   None.
Vector width:    32.
Lanes / atom:    8.
Pair block:      256.
Neigh block:     128.
Neigh mode:      Hybrid (binning on host) with subgroup support
---------------------------------------------------------------------


--------------------------------------------------------------------------
- Using acceleration for lj/cut/tip4p/long/gpu:
-  with 1 proc(s) per device.
-  with 5 thread(s) per proc.
-  Horizontal vector operations: ENABLED
-  Shared memory system: No
--------------------------------------------------------------------------
Device 0: Quadro RTX 6000, 72 CUs, 20/23 GB, 1.8 GHZ (Mixed Precision)
--------------------------------------------------------------------------

Initializing Device and compiling on process 0...Done.
Initializing Device 0 on core 0...Done.

Generated 0 of 3 mixed pair_coeff terms from geometric mixing rule
System init for write_data ...
PPPM initialization ...
  extracting TIP4P info from pair style
  using 12-bit tables for long-range coulomb
  G vector (1/distance) = 0.28833625
  grid = 50 50 50
  stencil order = 5
  estimated absolute RMS force accuracy = 0.00032955811
  estimated relative force accuracy = 9.9245447e-07
  using double precision FFTW3
  3d grid and FFT values/proc = 205379 125000

--------------------------------------------------------------------------
- Using acceleration for lj/cut/tip4p/long/gpu:
-  with 1 proc(s) per device.
-  with 5 thread(s) per proc.
-  Horizontal vector operations: ENABLED
-  Shared memory system: No
--------------------------------------------------------------------------
Device 0: Quadro RTX 6000, 72 CUs, 20/23 GB, 1.8 GHZ (Mixed Precision)
--------------------------------------------------------------------------

Initializing Device and compiling on process 0...Done.
Initializing Device 0 on core 0...Done.

Generated 0 of 3 mixed pair_coeff terms from geometric mixing rule
WARNING: Not all mixed pair coeffs generated from mixing. Use write_data with 'pair ij' option to store all pair coeffs. (src/write_data.cpp:364)

Pressure ramp complete:
  Density:  1.05180697445865 g/cm≥
  Pressure: 371.580680009306 atm
  Volume:   54237.5730542752 Ö≥
  Box size: 37.852980645737 Ö
úì Checkpoint 3 PASSED: Pressure ramp successful, liquid phase maintained

===== STAGE 3: NPT Equilibration (1000 ps, GPU) =====
Equilibrating at 300K, 1 atm with improved pressure control

Strategy:
  Phase 1 (400 ps): Higher damping for gentle pressure equilibration
  Phase 2 (600 ps): Standard damping for final equilibration

Phase 1: Gentle pressure equilibration (400 ps, pdamp=5000)...
PPPM initialization ...
  extracting TIP4P info from pair style
  using 12-bit tables for long-range coulomb
  G vector (1/distance) = 0.28833625
  grid = 50 50 50
  stencil order = 5
  estimated absolute RMS force accuracy = 0.00032955811
  estimated relative force accuracy = 9.9245447e-07
  using double precision FFTW3
  3d grid and FFT values/proc = 205379 125000

--------------------------------------------------------------------------
- Using acceleration for lj/cut/tip4p/long/gpu:
-  with 1 proc(s) per device.
-  with 5 thread(s) per proc.
-  Horizontal vector operations: ENABLED
-  Shared memory system: No
--------------------------------------------------------------------------
Device 0: Quadro RTX 6000, 72 CUs, 20/23 GB, 1.8 GHZ (Mixed Precision)
--------------------------------------------------------------------------

Initializing Device and compiling on process 0...Done.
Initializing Device 0 on core 0...Done.

Generated 0 of 3 mixed pair_coeff terms from geometric mixing rule
Setting up Verlet run ...
  Unit style    : real
  Current step  : 100010
  Time step     : 2
Per MPI rank memory allocation (min/avg/max) = 52.14 | 52.14 | 52.14 Mbytes
   Step          Temp          Press          Volume         PotEng         KinEng         TotEng        Density    
    100010   303.8517       371.40312      54237.573     -21205.384      3399.1829     -17806.202      1.051807     
    101000   305.6304       197.72448      54662.351     -21099.066      3419.0812     -17679.985      1.0436334    
    102000   293.85894      447.97281      54415.812     -21177.645      3287.3941     -17890.251      1.0483618    
    103000   294.23606      17.264972      53928.35      -21133.369      3291.613      -17841.756      1.057838     
    104000   298.76557     -344.23         54529.381     -21208.101      3342.2845     -17865.817      1.0461783    
    105000   298.86743     -65.719313      54361.752     -21187.971      3343.4241     -17844.547      1.0494043    
    106000   299.28031     -95.223456      54527.335     -21124.466      3348.0429     -17776.423      1.0462176    
    107000   299.52908     -396.93791      54558.633     -21223.066      3350.8258     -17872.241      1.0456174    
    108000   299.09945     -502.21148      54369.697     -21263.327      3346.0196     -17917.308      1.049251     
    109000   299.23337     -13.448205      54009.718     -21124.074      3347.5177     -17776.556      1.0562443    
    110000   297.47946      225.39949      54424.904     -21097.246      3327.8968     -17769.349      1.0481867    
    111000   298.75809     -313.25446      54591.611     -21241.71       3342.2009     -17899.509      1.0449858    
    112000   298.32932      597.38226      54248.78      -21103.887      3337.4041     -17766.483      1.0515897    
    113000   300.3546       467.69901      54389.479     -21191.068      3360.061      -17831.007      1.0488694    
    114000   297.06778     -243.36283      54414.882     -21160.77       3323.2914     -17837.478      1.0483797    
    115000   296.86025     -155.29737      54104.067     -21145.234      3320.9697     -17824.264      1.0544024    
    116000   299.18144      643.32549      53897.038     -21159.726      3346.9368     -17812.789      1.0584526    
    117000   304.86819      193.81178      54543.468     -21130.276      3410.5543     -17719.722      1.0459082    
    118000   294.17118     -135.59433      54648.666     -21195.28       3290.8871     -17904.393      1.0438948    
    119000   289.80235     -24.882249      54502.077     -21143.038      3242.0131     -17901.025      1.0467025    
    120000   299.40431      469.11628      54828.324     -20963.353      3349.4301     -17613.923      1.0404742    
    121000   290.57822      111.14857      54772.942     -21145.291      3250.6928     -17894.598      1.0415263    
    122000   300.65656      860.96427      53837.227     -21002.289      3363.4389     -17638.85       1.0596284    
    123000   297.50722      81.836795      54046.246     -21135.086      3328.2073     -17806.879      1.0555304    
    124000   301.10432      486.298        54243.639     -21185.97       3368.448      -17817.522      1.0516893    
    125000   297.74296      26.699338      54149.335     -21136.003      3330.8446     -17805.158      1.0535209    
    126000   310.55853      142.62649      54190.817     -21134.338      3474.2121     -17660.126      1.0527145    
    127000   301.56752      12.450876      55093.258     -21108.211      3373.6298     -17734.581      1.0354708    
    128000   298.09774      66.775861      54273.878     -21045.061      3334.8134     -17710.248      1.0511034    
    129000   307.67674      477.84149      53765.374     -21132.762      3441.9735     -17690.789      1.0610446    
    130000   301.21271     -464.80016      54382.402     -21115.152      3369.6606     -17745.492      1.0490059    
    131000   299.3246       133.67706      54002.741     -21016.184      3348.5384     -17667.646      1.0563808    
    132000   302.04061      761.88743      54085.772     -21122.64       3378.9223     -17743.718      1.0547591    
    133000   296.27094     -3.5495631      54360.7       -21230.16       3314.3771     -17915.782      1.0494246    
    134000   301.45636     -1093.3417      54398.421     -21288.388      3372.3863     -17916.002      1.0486969    
    135000   296.50416     -275.14617      54706.184     -21156.652      3316.9861     -17839.665      1.0427972    
    136000   306.3689       35.103921      54336.532     -20944.858      3427.3428     -17517.515      1.0498914    
    137000   297.17617     -149.17807      54109.255     -21085.385      3324.5039     -17760.881      1.0543013    
    138000   297.02317     -132.89142      54319.593     -21101.136      3322.7923     -17778.344      1.0502188    
    139000   297.59832     -251.00805      54078.606     -21184.426      3329.2265     -17855.2        1.0548988    
    140000   298.57834     -157.3994       54275.706     -21260.955      3340.19       -17920.765      1.051068     
    141000   299.10216     -647.91684      54854.917     -21091.936      3346.0499     -17745.886      1.0399698    
    142000   293.09574      40.39674       54448.77      -21198.336      3278.8562     -17919.48       1.0477272    
    143000   295.59601     -382.47811      54369.899     -21145.916      3306.8267     -17839.089      1.0492471    
    144000   299.14258     -179.18721      53967.197     -21284.444      3346.5021     -17937.942      1.0570765    
    145000   300.27065      427.73395      54054.848     -21141.138      3359.1218     -17782.016      1.0553625    
    146000   302.75483     -223.06605      54253.968     -21111.146      3386.9123     -17724.234      1.0514891    
    147000   292.33487      106.25021      54350.712     -21100.54       3270.3444     -17830.195      1.0496175    
    148000   297.75834     -362.8944       54046.274     -21089.699      3331.0166     -17758.682      1.0555299    
    149000   294.20991      727.63129      54127.452     -21157.684      3291.3204     -17866.364      1.0539468    
    150000   298.81778     -534.36203      54106.85      -21267.074      3342.8686     -17924.205      1.0543482    
    151000   298.25371      160.17562      53721.332     -21172.382      3336.5584     -17835.824      1.0619144    
    152000   301.80522     -755.51985      54682.931     -21067.313      3376.289      -17691.024      1.0432407    
    153000   291.40564     -486.50373      54742.621     -21103.025      3259.9491     -17843.076      1.0421031    
    154000   305.7669       196.3563       54289.479     -21227.801      3420.6082     -17807.193      1.0508013    
    155000   306.31392      95.25023       54503.809     -21142.685      3426.7277     -17715.957      1.0466692    
    156000   293.83858     -229.04543      54571.271     -21162.013      3287.1664     -17874.847      1.0453753    
    157000   294.68972      173.01619      54253.862     -21128.61       3296.6881     -17831.922      1.0514912    
    158000   304.78412     -407.24599      54351.295     -21039.52       3409.6139     -17629.906      1.0496062    
    159000   300.31219      417.70762      54397.473     -21202.151      3359.5865     -17842.564      1.0487152    
    160000   301.1846      -440.26269      54304.506     -21108.164      3369.3462     -17738.818      1.0505106    
    161000   308.4786       317.79133      54547.891     -21112.132      3450.944      -17661.188      1.0458233    
    162000   300.35534      430.34265      54033.16      -21195.798      3360.0692     -17835.729      1.0557861    
    163000   304.62755     -380.48821      54211.554     -21074.09       3407.8623     -17666.228      1.0523118    
    164000   301.76459     -571.23469      54075.346     -21165.226      3375.8344     -17789.392      1.0549624    
    165000   296.94542     -34.953372      54207.853     -21165.218      3321.9225     -17843.296      1.0523836    
    166000   300.6137      -301.41254      54626.031     -21202.569      3362.9595     -17839.609      1.0443273    
    167000   301.25445     -3.9425672      54447.652     -21174.622      3370.1275     -17804.494      1.0477487    
    168000   298.38194      270.57568      53980.037     -21161.02       3337.9928     -17823.027      1.0568251    
    169000   304.98969     -855.54403      54505.122     -21263.168      3411.9136     -17851.255      1.046644     
    170000   301.2247       146.87616      54404.066     -21216.282      3369.7947     -17846.487      1.0485881    
    171000   305.89893     -670.12003      54153.774     -21189.776      3422.0853     -17767.691      1.0534346    
    172000   294.62654     -12.321591      54302.421     -21193.218      3295.9812     -17897.237      1.0505509    
    173000   298.23945     -176.47656      54454.894     -21269.96       3336.3988     -17933.561      1.0476094    
    174000   294.58843     -561.27002      54659.398     -21012.822      3295.5549     -17717.267      1.0436898    
    175000   301.24177      391.32216      54224.11      -21008.108      3369.9857     -17638.123      1.0520681    
    176000   291.1971       258.00434      54029.427     -21074.175      3257.6162     -17816.559      1.055859     
    177000   304.17608      29.094477      54635.756     -21230.783      3402.8118     -17827.972      1.0441414    
    178000   296.37275      153.40282      54584.918     -21259.27       3315.5161     -17943.753      1.0451139    
    179000   299.21553      370.16907      54624.327     -21084.184      3347.3182     -17736.866      1.0443599    
    180000   303.89078     -209.03351      54282.868     -21070.174      3399.6201     -17670.554      1.0509293    
    181000   299.68689      517.14333      53837.662     -21011.963      3352.5913     -17659.372      1.0596199    
    182000   298.50015      55.457362      54573.316     -21114.577      3339.3152     -17775.262      1.0453361    
    183000   305.0279       228.78471      54869.638     -21144.906      3412.3411     -17732.565      1.0396908    
    184000   301.84249     -896.06951      54942.081     -21133.365      3376.7059     -17756.659      1.0383199    
    185000   299.68169      7.8416624      54420.307     -21054.272      3352.5332     -17701.739      1.0482752    
    186000   297.97915     -609.2188       55175.917     -21074.243      3333.4868     -17740.756      1.0339195    
    187000   301.09687      262.26158      54580.514     -21103.743      3368.3647     -17735.378      1.0451982    
    188000   300.80467     -181.42829      53893.038     -21100.019      3365.0959     -17734.923      1.0585311    
    189000   301.15922      305.1682       54165.323     -21205.261      3369.0622     -17836.198      1.05321      
    190000   297.70168      313.1038       54604.982     -21124.694      3330.3827     -17794.311      1.0447299    
    191000   299.59552     -676.47817      54208.105     -21245.286      3351.5691     -17893.717      1.0523788    
    192000   297.39196      601.80572      53637.668     -21116.321      3326.9179     -17789.403      1.0635708    
    193000   301.27017      598.26506      54565.743     -21165.117      3370.3034     -17794.813      1.0454812    
    194000   297.80876     -412.57377      54490.21      -21225.407      3331.5807     -17893.826      1.0469304    
    195000   297.56967      67.30257       54477.599     -20952.869      3328.906      -17623.963      1.0471728    
    196000   300.13679     -100.22221      54581.635     -21190.195      3357.6243     -17832.57       1.0451768    
    197000   302.06968      765.63252      54283.5       -21054.944      3379.2475     -17675.697      1.0509171    
    198000   294.17674      352.88963      54157.706     -21109.65       3290.9493     -17818.701      1.0533581    
    199000   304.49569      741.79606      54206.039     -21193.409      3406.3872     -17787.022      1.0524188    
    200000   290.77258      250.93678      54077.406     -21116.232      3252.8671     -17863.365      1.0549222    
    201000   306.21918     -159.53828      54103.313     -21176.808      3425.6678     -17751.14       1.0544171    
    202000   304.35365     -16.841461      54714.469     -21117.648      3404.7982     -17712.85       1.0426393    
    203000   298.4426      -751.07757      54405.82      -21109.004      3338.6715     -17770.332      1.0485543    
    204000   304.83057      259.97638      54094.434     -21120.869      3410.1336     -17710.736      1.0545902    
    205000   300.85337     -272.52802      54304.393     -21080.378      3365.6406     -17714.737      1.0505128    
    206000   299.28768      1043.2717      54178.252     -21018.397      3348.1253     -17670.272      1.0529586    
    207000   300.82075     -755.96207      54354.853     -21179.123      3365.2758     -17813.847      1.0495375    
    208000   296.8636      -703.50063      54114.452     -21236.794      3321.0072     -17915.787      1.0542       
    209000   298.31238      672.04963      54263.425     -21163.96       3337.2147     -17826.745      1.0513059    
    210000   299.00894      641.68126      54657.005     -21070.802      3345.0071     -17725.795      1.0437355    
    211000   300.75121      578.91938      54786.743     -21185.87       3364.4978     -17821.372      1.0412639    
    212000   300.21906     -319.04555      54494.716     -21161.988      3358.5446     -17803.444      1.0468438    
    213000   295.1361       304.36631      54131.85      -21170.437      3301.6817     -17868.756      1.0538612    
    214000   296.57943      62.725027      53860.634     -21297.262      3317.8282     -17979.434      1.059168     
    215000   295.92918     -487.12727      54283.083     -21058.671      3310.5539     -17748.117      1.0509252    
    216000   309.01956     -127.11085      54744.852     -21040.869      3456.9956     -17583.873      1.0420607    
    217000   300.45467     -266.73822      54173.225     -21113.292      3361.1805     -17752.111      1.0530563    
    218000   304.11431     -101.6035       53580.433     -21117.337      3402.1207     -17715.217      1.0647069    
    219000   304.29127     -90.138843      54206.004     -21176.97       3404.1004     -17772.87       1.0524195    
    220000   296.11286      257.1456       54226.422     -21066.939      3312.6087     -17754.33       1.0520233    
    221000   301.271        10.991199      54098.508     -21194.305      3370.3127     -17823.992      1.0545107    
    222000   308.38777      93.075469      54685.637     -21043.568      3449.9278     -17593.64       1.0431891    
    223000   305.33146     -656.21904      54652.048     -21145.315      3415.737      -17729.578      1.0438302    
    224000   294.37598      268.96071      54343.589     -21262.881      3293.1782     -17969.703      1.0497551    
    225000   297.93772      267.26396      54547.414     -21304.055      3333.0233     -17971.032      1.0458325    
    226000   292.10917     -1027.1599      54438.66      -21150.039      3267.8195     -17882.219      1.0479218    
    227000   301.61015     -131.89413      54230.872     -21129.852      3374.1067     -17755.745      1.0519369    
    228000   295.42688     -707.13273      54032.111     -21057.235      3304.9347     -17752.301      1.0558066    
    229000   300.4411       195.96861      54392.1       -21234.594      3361.0287     -17873.566      1.0488188    
    230000   301.44215      928.66599      54094.824     -21092.281      3372.2274     -17720.054      1.0545826    
    231000   303.53279     -768.39235      54676.826     -21198.98       3395.6153     -17803.365      1.0433571    
    232000   298.99657     -314.79547      54790.768     -21197.586      3344.8687     -17852.717      1.0411874    
    233000   294.64659     -344.89204      54488.357     -21124.783      3296.2055     -17828.578      1.046966     
    234000   298.69375     -27.818168      54331.542     -21100.12       3341.4811     -17758.639      1.0499878    
    235000   300.09353     -605.51505      54447.442     -21188.831      3357.1404     -17831.69       1.0477528    
    236000   301.84924      622.14635      53800.112     -21263.584      3376.7815     -17886.802      1.0603595    
    237000   301.37341      304.45371      54173.501     -21165.688      3371.4584     -17794.229      1.053051     
    238000   299.16117     -420.71162      54487.707     -21078.112      3346.7101     -17731.402      1.0469785    
    239000   303.03306      225.46745      54441.996     -21102.794      3390.0249     -17712.77       1.0478576    
    240000   303.34533     -35.254346      54491.982     -21057.335      3393.5182     -17663.817      1.0468964    
    241000   302.65245     -279.03341      54220.555     -21103.142      3385.7669     -17717.375      1.0521371    
    242000   302.35507     -229.5763       54070.563     -21203.837      3382.4402     -17821.396      1.0550557    
    243000   301.49111      586.85705      54385.287     -21049.16       3372.7751     -17676.385      1.0489502    
    244000   300.80774      526.35366      54454.716     -21186.171      3365.1303     -17821.041      1.0476128    
    245000   299.38155     -210.53749      54803.176     -21188.652      3349.1754     -17839.476      1.0409517    
    246000   299.54327     -56.680034      54193.684     -21096.323      3350.9846     -17745.338      1.0526588    
    247000   296.62694     -63.124597      53677.34      -21126.349      3318.3596     -17807.989      1.0627847    
    248000   299.81493     -568.92807      54495.884     -21147.318      3354.0236     -17793.294      1.0468214    
    249000   297.93305      191.99409      54571.491     -21138.692      3332.9711     -17805.721      1.0453711    
    250000   300.19602      231.0007       54505.181     -21188.231      3358.2869     -17829.944      1.0466429    
    251000   300.13788     -247.6044       54353.684     -21193.671      3357.6365     -17836.034      1.0495601    
    252000   299.27109      623.49115      54346.664     -21282.589      3347.9398     -17934.65       1.0496957    
    253000   303.84394     -311.10237      54897.087     -21131.152      3399.0961     -17732.056      1.0391709    
    254000   297.94799     -149.43107      54147.514     -21102.735      3333.1382     -17769.597      1.0535564    
    255000   307.72607      365.01225      53932.09      -21254.16       3442.5254     -17811.635      1.0577646    
    256000   293.69947     -215.95703      54352.042     -21157.247      3285.6102     -17871.637      1.0495918    
    257000   302.40716     -389.80603      54576.319     -21200.308      3383.0228     -17817.285      1.0452786    
    258000   297.64874      102.22322      54509.222     -21078.051      3329.7905     -17748.26       1.0465652    
    259000   306.09483      631.98625      53933.362     -21212.666      3424.2768     -17788.389      1.0577397    
    260000   302.49196      240.26538      54052.907     -21102.84       3383.9715     -17718.868      1.0554004    
    261000   298.00764      227.95264      53877.214     -21202.094      3333.8055     -17868.288      1.058842     
    262000   295.49541     -75.511083      54004.222     -21199.818      3305.7013     -17894.117      1.0563518    
    263000   297.11673     -420.80098      54709.174     -21115.603      3323.8389     -17791.764      1.0427402    
    264000   299.83293     -33.270994      53868.761     -21078.644      3354.225      -17724.419      1.0590082    
    265000   303.54564      164.45496      53705.656     -21156.973      3395.759      -17761.214      1.0622244    
    266000   297.31862      149.74         54296.926     -21065.157      3326.0975     -17739.06       1.0506572    
    267000   306.91779     -471.55692      54434.833     -21231.286      3433.4832     -17797.802      1.0479955    
    268000   295.86178      121.00681      54632.928     -21237.28       3309.7999     -17927.48       1.0441955    
    269000   296.99204      5.0537388      54601.996     -21257.778      3322.4441     -17935.334      1.044787     
    270000   308.29002      344.85733      53960.011     -21148.314      3448.8343     -17699.48       1.0572173    
    271000   303.99005     -352.36841      53944.062     -21195.149      3400.7306     -17794.418      1.0575299    
    272000   305.21256      197.75504      54569.545     -21147.839      3414.4068     -17733.432      1.0454083    
    273000   300.29813     -463.77939      54765.079     -21217.427      3359.4293     -17857.998      1.0416758    
    274000   299.05702     -288.65428      54647.074     -21098.612      3345.5449     -17753.067      1.0439252    
    275000   299.87394      270.47773      54119.562     -21125.373      3354.6838     -17770.689      1.0541005    
    276000   299.69073      497.03739      54195.849     -21155.779      3352.6342     -17803.145      1.0526167    
    277000   301.54244     -103.05119      54120.628     -21062.481      3373.3493     -17689.132      1.0540797    
    278000   301.37123      605.7373       53643.76      -21217.859      3371.4339     -17846.425      1.06345      
    279000   299.2557       173.75928      54376.11      -21164.548      3347.7675     -17816.781      1.0491272    
    280000   301.91132      225.8549       54267.825     -21154.064      3377.4759     -17776.588      1.0512206    
    281000   301.53978      179.31056      54070.698     -21242.345      3373.3196     -17869.025      1.0550531    
    282000   300.40211      107.31115      54298.113     -21169.326      3360.5924     -17808.733      1.0506342    
    283000   301.6607       213.59239      54362.665     -21145.726      3374.6723     -17771.054      1.0493867    
    284000   300.42985      702.9604       54076.242     -21283.546      3360.9028     -17922.644      1.0549449    
    285000   299.55402     -123.7642       54040.996     -21155.368      3351.1048     -17804.263      1.055633     
    286000   290.80776     -241.46369      54504.412     -21073.669      3253.2606     -17820.408      1.0466576    
    287000   298.01746     -329.09833      54339.369     -21281.334      3333.9154     -17947.419      1.0498366    
    288000   299.06318      90.275301      54195.896     -21163.598      3345.6139     -17817.985      1.0526158    
    289000   301.44806     -499.20087      54558.897     -21255.531      3372.2935     -17883.238      1.0456124    
    290000   294.85376      557.94619      54631.43      -21145.863      3298.5232     -17847.34       1.0442241    
    291000   297.16108      862.50241      54725.503     -21091.85       3324.3351     -17767.515      1.0424291    
    292000   302.52465      378.81325      54414.943     -21173.283      3384.3372     -17788.946      1.0483785    
    293000   306.78242      345.58038      54607.875     -21154.743      3431.9689     -17722.774      1.0446745    
    294000   306.31379     -337.1134       54549.487     -21142.794      3426.7263     -17716.068      1.0457927    
    295000   303.73748      1168.5439      53959.43      -21047.609      3397.9051     -17649.704      1.0572287    
    296000   299.92521     -452.46712      53754.043     -21184.202      3355.2574     -17828.944      1.0612682    
    297000   304.29486     -422.37801      54395.275     -21124.169      3404.1405     -17720.028      1.0487576    
    298000   300.74068      523.67477      54802.658     -21172.751      3364.38       -17808.371      1.0409615    
    299000   299.51768      610.61255      54346.868     -21265.776      3350.6983     -17915.077      1.0496917    
    300000   301.293        205.24223      54687.365     -21173.901      3370.5587     -17803.342      1.0431561    
    300010   300.0689      -170.23276      54685.54      -21149.114      3356.8648     -17792.249      1.0431909    
Loop time of 8823.43 on 5 procs for 200000 steps with 5541 atoms

Performance: 3.917 ns/day, 6.127 hours/ns, 22.667 timesteps/s, 125.597 katom-step/s
343.1% CPU use with 1 MPI tasks x 5 OpenMP threads

MPI task timing breakdown:
Section |  min time  |  avg time  |  max time  |%varavg| %total
---------------------------------------------------------------
Pair    | 318.56     | 318.56     | 318.56     |   0.0 |  3.61
Bond    | 3.347      | 3.347      | 3.347      |   0.0 |  0.04
Kspace  | 4640.3     | 4640.3     | 4640.3     |   0.0 | 52.59
Neigh   | 0.50969    | 0.50969    | 0.50969    |   0.0 |  0.01
Comm    | 95.752     | 95.752     | 95.752     |   0.0 |  1.09
Output  | 0.91983    | 0.91983    | 0.91983    |   0.0 |  0.01
Modify  | 3727.6     | 3727.6     | 3727.6     |   0.0 | 42.25
Other   |            | 36.46      |            |       |  0.41

Nlocal:           5541 ave        5541 max        5541 min
Histogram: 1 0 0 0 0 0 0 0 0 0
Nghost:          35247 ave       35247 max       35247 min
Histogram: 1 0 0 0 0 0 0 0 0 0
Neighs:              0 ave           0 max           0 min
Histogram: 1 0 0 0 0 0 0 0 0 0

Total # of neighbors = 0
Ave neighs/atom = 0
Ave special neighs/atom = 2.4872767
Neighbor list builds = 18552
Dangerous builds = 0

Phase 1 complete:
  Density:  1.04319090625292 g/cm≥
  Pressure: -170.232760239207 atm

Phase 2: Final equilibration (600 ps, pdamp=2000)...
PPPM initialization ...
  extracting TIP4P info from pair style
  using 12-bit tables for long-range coulomb
  G vector (1/distance) = 0.28819121
  grid = 50 50 50
  stencil order = 5
  estimated absolute RMS force accuracy = 0.00033214841
  estimated relative force accuracy = 1.0002551e-06
  using double precision FFTW3
  3d grid and FFT values/proc = 205379 125000


---------------------------------------------------------------------
      Device Time Info (average): 
---------------------------------------------------------------------
Data Transfer:   26.1797 s.
Neighbor copy:   4.7418 s.
Neighbor build:  37.4419 s.
Force calc:      687.1542 s.
Device Overhead: 13.3716 s.
CPU Neighbor:    16.0987 s.
CPU Cast/Pack:   62.8917 s.
CPU Driver_Time: 5.8355 s.
CPU Idle_Time:   2.4814 s.
Average split:   1.0000.
Max Mem / Proc:  133.24 MB.
Prefetch mode:   None.
Vector width:    32.
Lanes / atom:    8.
Pair block:      256.
Neigh block:     128.
Neigh mode:      Hybrid (binning on host) with subgroup support
---------------------------------------------------------------------


--------------------------------------------------------------------------
- Using acceleration for lj/cut/tip4p/long/gpu:
-  with 1 proc(s) per device.
-  with 5 thread(s) per proc.
-  Horizontal vector operations: ENABLED
-  Shared memory system: No
--------------------------------------------------------------------------
Device 0: Quadro RTX 6000, 72 CUs, 20/23 GB, 1.8 GHZ (Mixed Precision)
--------------------------------------------------------------------------

Initializing Device and compiling on process 0...Done.
Initializing Device 0 on core 0...Done.

Generated 0 of 3 mixed pair_coeff terms from geometric mixing rule
Setting up Verlet run ...
  Unit style    : real
  Current step  : 300010
  Time step     : 2
Per MPI rank memory allocation (min/avg/max) = 54.69 | 54.69 | 54.69 Mbytes
   Step          Temp          Press          Volume         PotEng         KinEng         TotEng        Density    
    300010   300.0689      -171.53534      54685.54      -21149.136      3356.8648     -17792.271      1.0431909    
    301000   305.80436     -169.54696      54231.009     -21139.647      3421.0273     -17718.619      1.0519343    
    302000   300.93897      452.52297      54146.966     -21138.722      3366.5982     -17772.124      1.053567     
    303000   292.50017      483.69711      54263.458     -21173.407      3272.1936     -17901.214      1.0513052    
    304000   308.39785     -375.55687      54730.358     -21137.28       3450.0406     -17687.24       1.0423366    
    305000   303.23687      487.55599      54600.582     -21254.131      3392.3048     -17861.826      1.0448141    
    306000   293.58276      726.83329      54301.379     -21149.61       3284.3045     -17865.306      1.0505711    
    307000   300.81365     -409.87316      54679.961     -21216.39       3365.1963     -17851.194      1.0432973    
    308000   301.68665     -792.40948      54694.989     -21187.572      3374.9626     -17812.61       1.0430107    
    309000   295.79324     -537.07111      54235.181     -21221.278      3309.0331     -17912.245      1.0518534    
    310000   296.75812      175.82107      54324.058     -21210.988      3319.8272     -17891.161      1.0501325    
    311000   299.16756     -550.2531       54896.301     -21120.467      3346.7816     -17773.686      1.0391858    
    312000   297.57755     -747.71692      54660.12      -21107.606      3328.9941     -17778.612      1.043676     
    313000   299.19482     -324.02295      54826.887     -21149.432      3347.0866     -17802.345      1.0405015    
    314000   302.27666     -485.1889       54634.796     -21222.941      3381.563      -17841.378      1.0441598    
    315000   303.08405     -284.71599      54281.327     -21095.239      3390.5953     -17704.644      1.0509592    
    316000   297.26569      2.5831415      53490.668     -21149.269      3325.5053     -17823.763      1.0664937    
    317000   298.2695       905.62623      54117.639     -21184.041      3336.735      -17847.306      1.054138     
    318000   302.94245      185.48708      54667.449     -21127.727      3389.0112     -17738.716      1.0435361    
    319000   297.87424     -610.94689      54320.214     -21203.032      3332.3132     -17870.718      1.0502068    
    320000   301.97151     -389.98769      54670.902     -21213.719      3378.1493     -17835.57       1.0434702    
    321000   298.21463     -595.99568      54071.547     -21157.822      3336.1211     -17821.701      1.0550365    
    322000   304.56054     -83.230881      54080.916     -21171.406      3407.1127     -17764.293      1.0548538    
    323000   298.77072     -519.0133       54286.583     -21202.108      3342.3421     -17859.766      1.0508574    
    324000   299.07996     -506.28886      54458.925     -21198.995      3345.8016     -17853.193      1.0475318    
    325000   296.53673     -287.06926      54377.656     -21219.115      3317.3505     -17901.764      1.0490974    
    326000   297.79281      224.07322      54051.25      -21139.573      3331.4022     -17808.17       1.0554327    
    327000   299.99585     -521.42161      54665.571     -21090.925      3356.0477     -17734.877      1.043572     
    328000   295.04276      213.45172      54115.557     -21259.305      3300.6375     -17958.667      1.0541785    
    329000   303.5947       698.07508      53990.646     -21193.103      3396.3079     -17796.795      1.0566174    
    330000   298.15135     -295.15914      54522.966     -21207.586      3335.4133     -17872.173      1.0463014    
    331000   296.37376     -416.14163      54223.401     -21172.545      3315.5274     -17857.018      1.0520819    
    332000   300.3811       87.688591      54238.821     -21200.086      3360.3574     -17839.729      1.0517828    
    333000   298.87143      127.425        53927.438     -21168.488      3343.4688     -17825.019      1.0578559    
    334000   301.71442     -38.830127      54226.12      -21135.891      3375.2732     -17760.618      1.0520291    
    335000   305.48965     -385.25577      54742.578     -21156.966      3417.5066     -17739.46       1.042104     
    336000   302.71494     -106.83885      54495.033     -21138.885      3386.466      -17752.419      1.0468378    
    337000   302.80909     -486.89376      54412.889     -21299.162      3387.5193     -17911.643      1.0484181    
    338000   294.25701     -111.41801      54537.384     -21054.667      3291.8474     -17762.82       1.0460248    
    339000   295.38813     -445.70667      54913.236     -21099.72       3304.5011     -17795.219      1.0388653    
    340000   303.63304      472.60019      54301.13      -21268.976      3396.7367     -17872.239      1.0505759    
    341000   307.09394      319.60161      54662.429     -21212.229      3435.4538     -17776.775      1.0436319    
    342000   298.25774     -743.57525      55083.083     -21193.475      3336.6034     -17856.871      1.035662     
    343000   292.2787      -124.60512      54430.223     -21054.658      3269.716      -17784.942      1.0480842    
    344000   303.38206      695.53662      54480.244     -21172.33       3393.9291     -17778.401      1.0471219    
    345000   289.92399      138.91802      54283.306     -21223.017      3243.3739     -17979.643      1.0509208    
    346000   297.05533      52.884495      54342.043     -21228.226      3323.152      -17905.074      1.0497849    
    347000   302.75956      722.80836      53957.496     -21223.843      3386.9652     -17836.878      1.0572666    
    348000   302.27125     -30.881181      53936.578     -21287.326      3381.5025     -17905.823      1.0576766    
    349000   306.74006      641.3816       54442.878     -21247.61       3431.4949     -17816.115      1.0478406    
    350000   303.96303     -811.80143      54808.93      -21319.271      3400.4284     -17918.843      1.0408424    
    351000   291.79578      617.27334      53890.412     -21208.285      3264.3136     -17943.972      1.0585827    
    352000   301.76108     -28.426532      54284.477     -21193.342      3375.7952     -17817.547      1.0508982    
    353000   304.36149     -222.72995      54266.603     -21143.089      3404.8859     -17738.203      1.0512443    
    354000   302.26716      314.58167      53968.32      -21115.178      3381.4567     -17733.721      1.0570545    
    355000   304.28042     -162.23108      54261.225     -21060.635      3403.9791     -17656.656      1.0513485    
    356000   300.97267      440.17955      54645.208     -21211.075      3366.9753     -17844.1        1.0439609    
    357000   297.84596      399.00668      54142.074     -21123.79       3331.9969     -17791.793      1.0536622    
    358000   299.89143      131.23121      53959.661     -21078.812      3354.8795     -17723.932      1.0572242    
    359000   299.59378     -195.42327      53919.188     -21118.314      3351.5497     -17766.765      1.0580177    
    360000   296.96915      610.05962      54137.434     -21148.34       3322.188      -17826.152      1.0537525    
    361000   301.46138      225.29417      54369.519     -21085.812      3372.4425     -17713.369      1.0492544    
    362000   292.25078     -149.8423       54214.292     -21100.552      3269.4037     -17831.148      1.0522586    
    363000   305.09204     -299.66909      54545.718     -21083.549      3413.0586     -17670.49       1.045865     
    364000   299.17979      719.96193      54304.968     -21163.05       3346.9183     -17816.132      1.0505016    
    365000   298.92973      571.20855      54237.052     -21134.848      3344.121      -17790.727      1.0518171    
    366000   297.83792     -68.556342      54512.987     -21116.794      3331.9068     -17784.887      1.046493     
    367000   306.08453     -255.47811      54052.282     -21365.202      3424.1616     -17941.04       1.0554126    
    368000   294.64311      561.97889      54143.678     -21152.332      3296.1666     -17856.165      1.053631     
    369000   288.64486     -122.63527      54907.092     -21277.895      3229.0643     -18048.831      1.0389816    
    370000   300.50555     -646.10322      54518.883     -21282.454      3361.7496     -17920.705      1.0463798    
    371000   299.11024     -193.61173      54695.787     -21221.007      3346.1403     -17874.866      1.0429955    
    372000   301.98604     -388.88088      54090.783     -21223.878      3378.3119     -17845.566      1.0546613    
    373000   295.30863     -213.35249      53900.841     -21014.198      3303.6117     -17710.586      1.0583779    
    374000   300.83589      284.5997       54177.902     -21081.862      3365.4451     -17716.416      1.0529654    
    375000   307.89545      265.70742      54675.456     -21119.024      3444.4203     -17674.603      1.0433833    
    376000   307.35061      508.32013      54449.22      -20981.222      3438.3252     -17542.897      1.0477185    
    377000   301.98538     -558.76111      54458.502     -21122.109      3378.3044     -17743.805      1.04754      
    378000   301.35977     -248.65957      54507.63      -21101.845      3371.3057     -17730.54       1.0465958    
    379000   301.12204     -154.23994      54701.663     -21163.405      3368.6463     -17794.758      1.0428834    
    380000   297.98291     -380.96413      53939.412     -21088.846      3333.5289     -17755.317      1.0576211    
[...]
   1487000   297.14633     -878.34457      54176.236     -21170.376      3324.1701     -17846.206      1.0529978    
   1488000   299.89053     -185.5127       54128.419     -21127.359      3354.8694     -17772.49       1.053928     
   1489000   302.45027     -92.83513       54340.357     -21167.556      3383.5052     -17784.051      1.0498175    
   1490000   302.96489      503.94151      54746.998     -21139.837      3389.2623     -17750.575      1.0420198    
   1491000   300.83057      475.0362       53882.296     -21092.657      3365.3856     -17727.272      1.0587421    
   1492000   302.9512       473.16763      54063.393     -21206.161      3389.1091     -17817.052      1.0551957    
   1493000   304.70871     -53.290181      54047.195     -21150.164      3408.7703     -17741.394      1.0555119    
   1494000   303.0515      -628.75026      54821.343     -21197.208      3390.2311     -17806.977      1.0406067    
   1495000   301.48273      173.61215      54410.687     -21187.029      3372.6813     -17814.347      1.0484605    
   1496000   299.68527     -661.8883       54371.847     -21278.786      3352.5732     -17926.213      1.0492095    
   1497000   303.69147      202.73175      54015.171     -21212.453      3397.3905     -17815.062      1.0561377    
   1498000   296.09603      512.35605      54505.008     -21162.682      3312.4204     -17850.262      1.0466462    
   1499000   303.72599     -264.51147      54327.304     -21143.007      3397.7767     -17745.231      1.0500697    
   1500000   295.38644     -51.367682      53872.533     -21164.447      3304.4822     -17859.965      1.058934     
   1501000   298.46004      124.87602      54388.024     -21106.564      3338.8665     -17767.698      1.0488974    
   1502000   299.50818     -688.14866      54410.937     -21233.167      3350.592      -17882.575      1.0484557    
   1503000   296.93984      195.9982       54240.602     -21220.359      3321.8601     -17898.499      1.0517482    
   1504000   303.85884      554.2955       53791.503     -21260.206      3399.2628     -17860.943      1.0605292    
   1505000   293.1384       41.004257      53875.239     -21119.439      3279.3335     -17840.105      1.0588808    
   1506000   293.39038      6.0071764      54375.093     -21126.307      3282.1523     -17844.155      1.0491468    
   1507000   297.55939      240.11038      54504.883     -21139.612      3328.791      -17810.821      1.0466486    
   1508000   305.64356     -258.82206      54463.636     -21277.976      3419.2285     -17858.747      1.0474412    
   1509000   295.20011     -442.88031      54263.848     -21304.954      3302.3978     -18002.557      1.0512977    
   1510000   306.93127     -358.3772       54075.486     -21293.838      3433.6341     -17860.204      1.0549597    
   1511000   300.90507      243.53889      53452.439     -21252.015      3366.2191     -17885.796      1.0672564    
   1512000   300.76561      204.46208      53844.196     -21279.952      3364.6589     -17915.293      1.0594913    
   1513000   293.76415     -201.54045      54363.167     -21149.476      3286.3337     -17863.142      1.049377     
   1514000   299.74362     -197.38537      54103.969     -21167.973      3353.2259     -17814.748      1.0544043    
   1515000   294.49118      299.93365      54379.28      -21134.601      3294.467      -17840.134      1.0490661    
   1516000   296.56144      170.88103      54217.173     -21159.936      3317.6269     -17842.309      1.0522027    
   1517000   300.72596     -1014.596       54176.112     -21267.477      3364.2153     -17903.262      1.0530002    
   1518000   300.30706      214.18136      53957.353     -21184.227      3359.5291     -17824.698      1.0572694    
   1519000   298.32283     -436.05542      54354.27      -21131.416      3337.3316     -17794.084      1.0495488    
   1520000   301.24451      122.94003      54382.586     -21071.183      3370.0163     -17701.167      1.0490023    
   1521000   297.87349      745.43969      53869.225     -21120.216      3332.3048     -17787.912      1.058999     
   1522000   297.16154     -378.24423      54394.088     -21247.733      3324.3402     -17923.392      1.0487805    
   1523000   305.42065      633.92899      53805.472     -21141.391      3416.7348     -17724.656      1.0602538    
   1524000   300.15601     -316.45705      54281.444     -21112.027      3357.8393     -17754.188      1.0509569    
   1525000   292.86364     -377.34353      54690.08      -20999.08       3276.2597     -17722.82       1.0431043    
   1526000   301.28272      266.87864      54416.029     -20958.234      3370.4438     -17587.791      1.0483576    
   1527000   295.32046      293.31415      54040.81      -21129.309      3303.7441     -17825.565      1.0556366    
   1528000   303.17945      601.00877      53784.217     -21155.718      3391.6625     -17764.055      1.0606728    
   1529000   307.79211     -132.38003      53519.612     -21117.87       3443.2642     -17674.606      1.0659169    
   1530000   298.22744     -76.122684      54542.198     -20968.437      3336.2645     -17632.173      1.0459325    
   1531000   305.33141      486.45667      54499.491     -21110.11       3415.7364     -17694.373      1.0467521    
   1532000   304.72679      271.59725      54052.729     -21058.235      3408.9725     -17649.262      1.0554038    
   1533000   294.06766     -1097.1571      54851.47      -21235.637      3289.7291     -17945.908      1.0400352    
   1534000   298.21182     -760.35452      54753.171     -21086.493      3336.0897     -17750.403      1.0419023    
   1535000   297.95137      429.36395      54306.153     -21173.22       3333.1761     -17840.044      1.0504787    
   1536000   295.4503       166.35032      53961.598     -21157.039      3305.1966     -17851.843      1.0571862    
   1537000   293.10521     -349.05044      54361.466     -21165.664      3278.9622     -17886.702      1.0494098    
   1538000   299.16369     -74.150143      54738.381     -21148.857      3346.7383     -17802.119      1.0421839    
   1539000   302.29206      328.46858      54638.987     -21199.436      3381.7353     -17817.7        1.0440797    
   1540000   295.89287      111.99873      54301.727     -21155.516      3310.1476     -17845.369      1.0505643    
   1541000   299.56281     -231.91431      54626.161     -21040.224      3351.2032     -17689.021      1.0443249    
   1542000   301.57094     -371.94016      54640.259     -21098.316      3373.6681     -17724.648      1.0440554    
   1543000   300.93031     -322.51557      54974.712     -21051.53       3366.5014     -17685.029      1.0377036    
   1544000   303.10538     -160.55623      53750.579     -21257.976      3390.8338     -17867.142      1.0613366    
   1545000   297.21601     -454.551        54586.144     -21042.35       3324.9496     -17717.401      1.0450904    
   1546000   299.19101     -966.38632      54250.097     -21185.576      3347.0439     -17838.532      1.0515642    
   1547000   302.55809      697.35516      53490.136     -21169.367      3384.7113     -17784.656      1.0665042    
   1548000   295.30662      153.34521      53911.285     -21158.525      3303.5892     -17854.936      1.0581728    
   1549000   301.36483      26.446632      54129.885     -21163.233      3371.3624     -17791.871      1.0538995    
   1550000   299.28145     -183.27623      54588.615     -21162.124      3348.0556     -17814.069      1.0450431    
   1551000   300.2059       756.79944      54777.766     -21154.488      3358.3974     -17796.09       1.0414345    
   1552000   298.67848     -798.37951      54634.183     -21096.614      3341.3102     -17755.304      1.0441715    
   1553000   301.42677     -297.63881      54494.757     -21236.353      3372.0552     -17864.298      1.0468431    
   1554000   297.48538     -720.5265       55028.7       -21218.019      3327.963      -17890.056      1.0366855    
   1555000   297.62669     -159.80493      54334.454     -21084.96       3329.5438     -17755.416      1.0499316    
   1556000   305.86646      141.14212      53893.202     -21103.18       3421.722      -17681.458      1.0585279    
   1557000   299.66089     -314.83898      53922.529     -21183.249      3352.3004     -17830.948      1.0579522    
   1558000   297.87674      227.42728      54031.204     -21106.771      3332.3412     -17774.43       1.0558243    
   1559000   297.74806      205.63381      54622.596     -21122.354      3330.9016     -17791.452      1.044393     
   1560000   310.76801      368.36984      54346.3       -21096.981      3476.5556     -17620.426      1.0497027    
   1561000   303.4027      -26.965876      54921.702     -21144.766      3394.1599     -17750.606      1.0387052    
   1562000   302.22703      539.56817      53939.308     -21218.672      3381.0078     -17837.664      1.0576231    
   1563000   296.92184      263.00799      54470.689     -21142.406      3321.6587     -17820.747      1.0473056    
   1564000   302.61193     -4.8286044      54343.201     -21204.205      3385.3136     -17818.892      1.0497625    
   1565000   296.44709     -574.1296       54648.942     -21099.889      3316.3477     -17783.541      1.0438895    
   1566000   296.93535      288.52686      54308.156     -21089.587      3321.8099     -17767.777      1.05044      
   1567000   307.59841     -158.94127      54122.266     -21197.068      3441.0973     -17755.971      1.0540478    
   1568000   298.44054      824.3683       54310.93      -21045.311      3338.6483     -17706.663      1.0503863    
   1569000   302.56812      238.73811      54139.853     -21162.104      3384.8235     -17777.28       1.0537054    
   1570000   301.86394      723.24349      54585.378     -21138.587      3376.9459     -17761.641      1.0451051    
   1571000   296.73744     -508.70446      54666.987     -21036.273      3319.5959     -17716.677      1.0435449    
   1572000   304.65076      799.51609      54272.553     -21177.175      3408.1219     -17769.053      1.0511291    
   1573000   302.22137      843.69777      54392.562     -21043.579      3380.9444     -17662.635      1.0488099    
   1574000   298.49131      275.864        54206.027     -21340.847      3339.2164     -18001.63       1.0524191    
   1575000   292.67439     -942.09319      54501.376     -21148.441      3274.1426     -17874.298      1.0467159    
   1576000   305.69696      1135.2842      54510.823     -21177.918      3419.8258     -17758.092      1.0465345    
   1577000   300.31101      465.27222      54569.79      -21228.496      3359.5733     -17868.923      1.0454036    
   1578000   297.65277      297.90148      53980.749     -21093.116      3329.8357     -17763.281      1.0568112    
   1579000   300.84227     -126.34342      54346.611     -21220.078      3365.5165     -17854.561      1.0496967    
   1580000   288.50982      546.35758      54031.324     -21157.233      3227.5537     -17929.68       1.055822     
   1581000   296.20834      586.67385      54205.114     -21246.498      3313.6768     -17932.821      1.0524368    
   1582000   289.50861      84.399782      54178.571     -21112.726      3238.7271     -17873.999      1.0529524    
   1583000   300.44366      44.88573       54208.659     -21182.445      3361.0573     -17821.388      1.052368     
   1584000   304.60235      15.15857       54493.479     -21205.196      3407.5804     -17797.616      1.0468676    
   1585000   298.6752       289.95168      53998.377     -21247.021      3341.2735     -17905.748      1.0564661    
   1586000   303.08879     -164.59179      54135.237     -21141.015      3390.6483     -17750.366      1.0537953    
   1587000   304.77161     -267.30626      53983.016     -21158.135      3409.4739     -17748.661      1.0567668    
   1588000   301.52867      337.46983      54236.78      -21169.064      3373.1953     -17795.869      1.0518223    
   1589000   308.19308      1543.8193      54461.985     -21039.964      3447.7498     -17592.215      1.047473     
   1590000   295.9765       179.4673       54309.52      -21208.814      3311.0832     -17897.731      1.0504136    
   1591000   307.5728      -22.656277      54278.153     -21219.834      3440.8109     -17779.023      1.0510206    
   1592000   300.17987      240.00105      53711.409     -21123.129      3358.1062     -17765.023      1.0621106    
   1593000   297.59511     -1395.7385      54345.485     -21171.542      3329.1906     -17842.351      1.0497184    
   1594000   304.52536      209.80983      54937.425     -21139.708      3406.7191     -17732.989      1.0384079    
   1595000   299.22683      9.2289715      54004.597     -21236.837      3347.4446     -17889.392      1.0563445    
   1596000   301.67535      765.33918      54577.368     -21052.581      3374.8361     -17677.745      1.0452585    
   1597000   299.17072      159.70558      54016.048     -21258.651      3346.8169     -17911.834      1.0561205    
   1598000   298.5997      -774.22816      54524.483     -21225.908      3340.4289     -17885.479      1.0462723    
   1599000   305.06907     -770.21287      54217.938     -21132.398      3412.8016     -17719.596      1.0521879    
   1600000   298.38099      272.65113      54615.163     -21052.718      3337.9822     -17714.736      1.0445352    
   1600010   301.94614     -429.10975      54636.402     -21095.284      3377.8655     -17717.419      1.0441291    
Loop time of 44734.4 on 5 procs for 1000000 steps with 5541 atoms

Performance: 3.863 ns/day, 6.213 hours/ns, 22.354 timesteps/s, 123.864 katom-step/s
337.8% CPU use with 1 MPI tasks x 5 OpenMP threads

MPI task timing breakdown:
Section |  min time  |  avg time  |  max time  |%varavg| %total
---------------------------------------------------------------
Pair    | 1608.9     | 1608.9     | 1608.9     |   0.0 |  3.60
Bond    | 16.164     | 16.164     | 16.164     |   0.0 |  0.04
Kspace  | 22768      | 22768      | 22768      |   0.0 | 50.90
Neigh   | 41.11      | 41.11      | 41.11      |   0.0 |  0.09
Comm    | 472.28     | 472.28     | 472.28     |   0.0 |  1.06
Output  | 18.073     | 18.073     | 18.073     |   0.0 |  0.04
Modify  | 19628      | 19628      | 19628      |   0.0 | 43.88
Other   |            | 181.6      |            |       |  0.41

Nlocal:           5541 ave        5541 max        5541 min
Histogram: 1 0 0 0 0 0 0 0 0 0
Nghost:          35375 ave       35375 max       35375 min
Histogram: 1 0 0 0 0 0 0 0 0 0
Neighs:    4.74914e+06 ave 4.74914e+06 max 4.74914e+06 min
Histogram: 1 0 0 0 0 0 0 0 0 0

Total # of neighbors = 4749143
Ave neighs/atom = 857.09132
Ave special neighs/atom = 2.4872767
Neighbor list builds = 93144
Dangerous builds = 0

===== Saving Final Configuration =====
System init for write_data ...
PPPM initialization ...
  extracting TIP4P info from pair style
  using 12-bit tables for long-range coulomb
  G vector (1/distance) = 0.28820707
  grid = 50 50 50
  stencil order = 5
  estimated absolute RMS force accuracy = 0.00033186426
  estimated relative force accuracy = 9.9939936e-07
  using double precision FFTW3
  3d grid and FFT values/proc = 205379 125000


---------------------------------------------------------------------
      Device Time Info (average): 
---------------------------------------------------------------------
Data Transfer:   131.6515 s.
Neighbor copy:   23.9170 s.
Neighbor build:  190.0098 s.
Force calc:      3463.6246 s.
Device Overhead: 28.3168 s.
CPU Neighbor:    81.1646 s.
CPU Cast/Pack:   319.4454 s.
CPU Driver_Time: 25.3200 s.
CPU Idle_Time:   12.2470 s.
Average split:   1.0000.
Max Mem / Proc:  275.83 MB.
Prefetch mode:   None.
Vector width:    32.
Lanes / atom:    8.
Pair block:      256.
Neigh block:     128.
Neigh mode:      Hybrid (binning on host) with subgroup support
---------------------------------------------------------------------


--------------------------------------------------------------------------
- Using acceleration for lj/cut/tip4p/long/gpu:
-  with 1 proc(s) per device.
-  with 5 thread(s) per proc.
-  Horizontal vector operations: ENABLED
-  Shared memory system: No
--------------------------------------------------------------------------
Device 0: Quadro RTX 6000, 72 CUs, 22/23 GB, 1.8 GHZ (Mixed Precision)
--------------------------------------------------------------------------

Initializing Device and compiling on process 0...Done.
Initializing Device 0 on core 0...Done.

Generated 0 of 3 mixed pair_coeff terms from geometric mixing rule
WARNING: Not all mixed pair coeffs generated from mixing. Use write_data with 'pair ij' option to store all pair coeffs. (src/write_data.cpp:364)
System init for write_restart ...
PPPM initialization ...
  extracting TIP4P info from pair style
  using 12-bit tables for long-range coulomb
  G vector (1/distance) = 0.28820707
  grid = 50 50 50
  stencil order = 5
  estimated absolute RMS force accuracy = 0.00033186426
  estimated relative force accuracy = 9.9939936e-07
  using double precision FFTW3
  3d grid and FFT values/proc = 205379 125000

--------------------------------------------------------------------------
- Using acceleration for lj/cut/tip4p/long/gpu:
-  with 1 proc(s) per device.
-  with 5 thread(s) per proc.
-  Horizontal vector operations: ENABLED
-  Shared memory system: No
--------------------------------------------------------------------------
Device 0: Quadro RTX 6000, 72 CUs, 22/23 GB, 1.8 GHZ (Mixed Precision)
--------------------------------------------------------------------------

Initializing Device and compiling on process 0...Done.
Initializing Device 0 on core 0...Done.

Generated 0 of 3 mixed pair_coeff terms from geometric mixing rule

ïêïêïêïêïêïêïêïêïêïêïêïêïêïêïêïêïêïêïêïêïêïêïêïêïêïêïêïêïêïêïêïêïêïêïêïêïêïêïêïêïêïêïêïêïêïêïêïêïêïêïêïêïêïêïêïêïêïêïêïêïêïêïêïêïêïêïêïêïêïêïêïêïêïêïêïê
                     EQUILIBRATION COMPLETE - SUCCESS!
ïêïêïêïêïêïêïêïêïêïêïêïêïêïêïêïêïêïêïêïêïêïêïêïêïêïêïêïêïêïêïêïêïêïêïêïêïêïêïêïêïêïêïêïêïêïêïêïêïêïêïêïêïêïêïêïêïêïêïêïêïêïêïêïêïêïêïêïêïêïêïêïêïêïêïêïê

Simulation Summary:
  Total simulation time: 5.22 ns
    - NVT thermalization:     50 ps
    - Pre-equilibration:      50 ps  (NEW - prevents PPPM artifacts)
    - Pressure ramp:         100 ps  (EXTENDED and with drag damping)
    - NPT equilibration:    1000 ps
    - Production run:       4000 ps (4 ns)

Final Thermodynamic State:
  Temperature:    301.946139758697 K      (target: 300K)
  Pressure:       -429.109750650635 atm   (target: 1 atm)
  Density:        1.04412911619553 g/cm≥  (target: 0.95-1.05)
  Volume:         54636.4015056488 Ö≥
  Box size:       37.945536359732 Ö    (expected: 58-63)

Final Energies:
  Potential:      -21095.2843302184 kcal/mol
  Kinetic:        3377.86546208171 kcal/mol
  Total:          -17717.4188681367 kcal/mol


ERROR: Input line quote not followed by white-space (src/input.cpp:556)
Last input line: if "${final_dens} >= 0.85" then "if \"${final_dens} <= 1.15\" then \"jump SELF validation_success\" else \"jump SELF validation_warning\""
Cuda driver error 4 in call at file '/home/iiserk/sbs/solvent/mylammps_v2/lib/gpu/geryon/nvd_timer.h' in line 98.
Cuda driver error 4 in call at file '/home/iiserk/sbs/solvent/mylammps_v2/lib/gpu/geryon/nvd_timer.h' in line 99.
Cuda driver error 4 in call at file '/home/iiserk/sbs/solvent/mylammps_v2/lib/gpu/geryon/nvd_timer.h' in line 98.
Cuda driver error 4 in call at file '/home/iiserk/sbs/solvent/mylammps_v2/lib/gpu/geryon/nvd_timer.h' in line 99.
Cuda driver error 4 in call at file '/home/iiserk/sbs/solvent/mylammps_v2/lib/gpu/geryon/nvd_timer.h' in line 98.
Cuda driver error 4 in call at file '/home/iiserk/sbs/solvent/mylammps_v2/lib/gpu/geryon/nvd_timer.h' in line 99.
Cuda driver error 4 in call at file '/home/iiserk/sbs/solvent/mylammps_v2/lib/gpu/geryon/nvd_timer.h' in line 98.
Cuda driver error 4 in call at file '/home/iiserk/sbs/solvent/mylammps_v2/lib/gpu/geryon/nvd_timer.h' in line 99.
