LAMMPS (10 Sep 2025)
  using 10 OpenMP thread(s) per MPI task
Reading data file ...
  orthogonal box = (-20 -20 -20) to (20 20 20)
  1 by 1 by 1 MPI processor grid
  reading atoms ...
  5541 atoms
  reading velocities ...
  5541 velocities
  scanning bonds ...
  3 = max bonds/atom
  scanning angles ...
  1 = max angles/atom
  orthogonal box = (-20 -20 -20) to (20 20 20)
  1 by 1 by 1 MPI processor grid
  reading bonds ...
  3844 bonds
  reading angles ...
  1787 angles
Finding 1-2 1-3 1-4 neighbors ...
  special bond factors lj:    0        0        0       
  special bond factors coul:  0        0        0       
     3 = max # of 1-2 neighbors
     6 = max # of 1-3 neighbors
    18 = max # of 1-4 neighbors
    17 = max # of special neighbors
  special bonds CPU = 0.002 seconds
  read_data CPU = 0.063 seconds
180 atoms in group carbon
5361 atoms in group water
1787 atoms in group oxygen
3574 atoms in group hydrogen
WARNING: Detected non-ASCII characters in input. Will try to continue by replacing with ASCII equivalents where known. (src/input.cpp:479)
ïêïêïêïêïêïêïêïêïêïêïêïêïêïêïêïêïêïêïêïêïêïêïêïêïêïêïêïêïêïêïêïêïêïêïêïêïêïêïêïêïêïêïêïêïêïêïêïêïêïêïêïêïêïêïêïêïêïêïêïêïêïêïêïêïêïêïêïêïêïêïêïêïêïêïêïê
SYSTEM INFORMATION:
  Epsilon (O-C): 0.45 kcal/mol
  Random seed:   42
  Timestep:      2.0 fs (with SHAKE constraints)
  PPPM grid:     40ó40ó40 (LOCKED to prevent artifacts)
ïêïêïêïêïêïêïêïêïêïêïêïêïêïêïêïêïêïêïêïêïêïêïêïêïêïêïêïêïêïêïêïêïêïêïêïêïêïêïêïêïêïêïêïêïêïêïêïêïêïêïêïêïêïêïêïêïêïêïêïêïêïêïêïêïêïêïêïêïêïêïêïêïêïêïêïê

===== STAGE 0: Gentle Minimization (removing any overlaps) =====
Using CPU pair style for numerical stability during minimization


CITE-CITE-CITE-CITE-CITE-CITE-CITE-CITE-CITE-CITE-CITE-CITE-CITE

Your simulation uses code contributions which should be cited:
- GPU package (short-range, long-range and three-body potentials): doi:10.1016/j.cpc.2010.12.021, doi:10.1016/j.cpc.2011.10.012, doi:10.1016/j.cpc.2013.08.002, doi:10.1016/j.commatsci.2014.10.068, doi:10.1016/j.cpc.2016.10.020, doi:10.3233/APC200086
The log file lists these citations in BibTeX format.

CITE-CITE-CITE-CITE-CITE-CITE-CITE-CITE-CITE-CITE-CITE-CITE-CITE

Switching to 'neigh_modify every 1 delay 0 check yes' setting during minimization
PPPM initialization ...
  extracting TIP4P info from pair style
  using 12-bit tables for long-range coulomb
  G vector (1/distance) = 0.28512662
  grid = 50 50 50
  stencil order = 5
  estimated absolute RMS force accuracy = 0.00038934319
  estimated relative force accuracy = 1.1724955e-06
  using double precision FFTW3
  3d grid and FFT values/proc = 185193 125000

--------------------------------------------------------------------------
- Using acceleration for lj/cut/tip4p/long/gpu:
-  with 1 proc(s) per device.
-  with 10 thread(s) per proc.
-  Horizontal vector operations: ENABLED
-  Shared memory system: No
--------------------------------------------------------------------------
Device 0: Quadro RTX 6000, 72 CUs, 22/23 GB, 1.8 GHZ (Mixed Precision)
--------------------------------------------------------------------------

Initializing Device and compiling on process 0...Done.
Initializing Device 0 on core 0...Done.

Generated 0 of 3 mixed pair_coeff terms from geometric mixing rule
Setting up cg style minimization ...
  Unit style    : real
  Current step  : 0
Per MPI rank memory allocation (min/avg/max) = 59.33 | 59.33 | 59.33 Mbytes
   Step          Temp          Press          Volume         PotEng         KinEng         TotEng        Density    
         0   36.495381      27222.907      64000         -23233.227      602.67332     -22630.554      0.89136653   
        10   36.495381     -19481.196      64000         -142258.55      602.67332     -141655.87      0.89136653   
Loop time of 0.223241 on 10 procs for 10 steps with 5541 atoms

974.5% CPU use with 1 MPI tasks x 10 OpenMP threads

Minimization stats:
  Stopping criterion = max iterations
  Energy initial, next-to-last, final = 
     -23233.2273954076  -124541.196337746  -142258.548132538
  Force two-norm initial, final = 2152.6637 6845.6372
  Force max component initial, final = 49.701756 357.31027
  Final line search alpha, max atom move = 0.0003855245 0.13775186
  Iterations, force evaluations = 10 10

MPI task timing breakdown:
Section |  min time  |  avg time  |  max time  |%varavg| %total
---------------------------------------------------------------
Pair    | 0.0065881  | 0.0065881  | 0.0065881  |   0.0 |  2.95
Bond    | 0.0018145  | 0.0018145  | 0.0018145  |   0.0 |  0.81
Kspace  | 0.20916    | 0.20916    | 0.20916    |   0.0 | 93.69
Neigh   | 0          | 0          | 0          |   0.0 |  0.00
Comm    | 0.0026927  | 0.0026927  | 0.0026927  |   0.0 |  1.21
Output  | 7.0023e-05 | 7.0023e-05 | 7.0023e-05 |   0.0 |  0.03
Modify  | 1.198e-06  | 1.198e-06  | 1.198e-06  |   0.0 |  0.00
Other   |            | 0.002919   |            |       |  1.31

Nlocal:           5541 ave        5541 max        5541 min
Histogram: 1 0 0 0 0 0 0 0 0 0
Nghost:          33839 ave       33839 max       33839 min
Histogram: 1 0 0 0 0 0 0 0 0 0
Neighs:              0 ave           0 max           0 min
Histogram: 1 0 0 0 0 0 0 0 0 0

Total # of neighbors = 0
Ave neighs/atom = 0
Ave special neighs/atom = 2.4872767
Neighbor list builds = 0
Dangerous builds = 0
Minimization complete. PE = -142258.548132538 kcal/mol (was -23,217)

Applying SHAKE constraints...
Finding SHAKE clusters ...
       0 = # of size 2 clusters
       0 = # of size 3 clusters
       0 = # of size 4 clusters
    1787 = # of frozen angles
  find clusters CPU = 0.001 seconds
SHAKE constraint verification:
  Expected: ~2000 water molecules with constrained bonds and angles
  Check minimization output for cluster sizes

GPU Acceleration Status:
  úì Pair forces (LJ):      GPU (lj/cut/tip4p/long/gpu)
  úì Coulomb (PPPM):        CPU (pppm/tip4p) - GPU suffix not available
  úì Neighbor lists:        GPU (neigh yes)
  Üí Expected speedup:      2-3ó vs CPU-only version (pair forces only)

===== STAGE 1: NVT Thermalization (50 ps, GPU) =====
Objective: Reach 300K while maintaining initial density
PPPM initialization ...
  extracting TIP4P info from pair style
  using 12-bit tables for long-range coulomb
  G vector (1/distance) = 0.28512662
  grid = 50 50 50
  stencil order = 5
  estimated absolute RMS force accuracy = 0.00038934319
  estimated relative force accuracy = 1.1724955e-06
  using double precision FFTW3
  3d grid and FFT values/proc = 185193 125000


---------------------------------------------------------------------
      Device Time Info (average): 
---------------------------------------------------------------------
Data Transfer:   0.0013 s.
Neighbor copy:   0.0003 s.
Neighbor build:  0.0009 s.
Force calc:      0.0156 s.
Device Overhead: 0.0004 s.
CPU Neighbor:    0.0010 s.
CPU Cast/Pack:   0.0040 s.
CPU Driver_Time: 0.0004 s.
CPU Idle_Time:   0.0001 s.
Average split:   1.0000.
Max Mem / Proc:  98.37 MB.
Prefetch mode:   None.
Vector width:    32.
Lanes / atom:    8.
Pair block:      256.
Neigh block:     128.
Neigh mode:      Hybrid (binning on host) with subgroup support
---------------------------------------------------------------------


--------------------------------------------------------------------------
- Using acceleration for lj/cut/tip4p/long/gpu:
-  with 1 proc(s) per device.
-  with 10 thread(s) per proc.
-  Horizontal vector operations: ENABLED
-  Shared memory system: No
--------------------------------------------------------------------------
Device 0: Quadro RTX 6000, 72 CUs, 22/23 GB, 1.8 GHZ (Mixed Precision)
--------------------------------------------------------------------------

Initializing Device and compiling on process 0...Done.
Initializing Device 0 on core 0...Done.

Generated 0 of 3 mixed pair_coeff terms from geometric mixing rule
Setting up Verlet run ...
  Unit style    : real
  Current step  : 10
  Time step     : 2
Per MPI rank memory allocation (min/avg/max) = 58.79 | 58.79 | 58.79 Mbytes
   Step          Temp          Press          Volume         PotEng         KinEng         TotEng        Density    
        10   300           -112536.8       64000         -142258.55      3356.094      -138902.45      0.89136653   
      1000   304.61249     -912.66048      64000         -20127.231      3407.6938     -16719.538      0.89136653   
      2000   305.17869     -769.58294      64000         -20471.262      3414.0279     -17057.234      0.89136653   
      3000   295.70045     -944.11791      64000         -20331.64       3307.9951     -17023.644      0.89136653   
      4000   301.61136     -1355.6656      64000         -20533.058      3374.1203     -17158.937      0.89136653   
      5000   301.61447     -1536.5971      64000         -20491.133      3374.1551     -17116.978      0.89136653   
      6000   295.28777     -1787.2402      64000         -20468.989      3303.3784     -17165.611      0.89136653   
      7000   298.01417     -1205.56        64000         -20526.484      3333.8786     -17192.606      0.89136653   
      8000   302.74307     -1542.4219      64000         -20564.801      3386.7807     -17178.021      0.89136653   
      9000   305.19732     -1270.3319      64000         -20553.253      3414.2363     -17139.017      0.89136653   
     10000   294.87935     -708.97447      64000         -20575.523      3298.8094     -17276.713      0.89136653   
     11000   297.23186     -1067.6574      64000         -20605.871      3325.1269     -17280.744      0.89136653   
     12000   306.66823     -1238.1851      64000         -20605.979      3430.6913     -17175.288      0.89136653   
     13000   295.87878     -1267.8304      64000         -20593.128      3309.9901     -17283.138      0.89136653   
     14000   301.95347     -1634.1991      64000         -20620.532      3377.9475     -17242.585      0.89136653   
     15000   299.08968     -1698.3812      64000         -20627          3345.9103     -17281.09       0.89136653   
     16000   304.22366     -912.64338      64000         -20621.994      3403.3441     -17218.65       0.89136653   
     17000   301.74674     -1109.0759      64000         -20689.205      3375.6348     -17313.57       0.89136653   
     18000   297.79707     -919.76053      64000         -20566.664      3331.4499     -17235.214      0.89136653   
     19000   293.85607     -1453.5355      64000         -20636.816      3287.362      -17349.454      0.89136653   
     20000   299.37082     -1054.124       64000         -20789.893      3349.0554     -17440.838      0.89136653   
     21000   300.6126      -956.4719       64000         -20570.172      3362.9472     -17207.224      0.89136653   
     22000   301.24579     -1103.693       64000         -20487.198      3370.0307     -17117.167      0.89136653   
     23000   298.76079     -894.87304      64000         -20485.902      3342.2311     -17143.671      0.89136653   
     24000   301.20333     -1326.148       64000         -20678.024      3369.5557     -17308.468      0.89136653   
     25000   300.0116      -940.02739      64000         -20551.36       3356.2239     -17195.136      0.89136653   
     25010   306.6929      -942.06235      64000         -20620.569      3430.9674     -17189.602      0.89136653   
Loop time of 648.284 on 10 procs for 25000 steps with 5541 atoms

Performance: 6.664 ns/day, 3.602 hours/ns, 38.563 timesteps/s, 213.680 katom-step/s
943.4% CPU use with 1 MPI tasks x 10 OpenMP threads

MPI task timing breakdown:
Section |  min time  |  avg time  |  max time  |%varavg| %total
---------------------------------------------------------------
Pair    | 27.15      | 27.15      | 27.15      |   0.0 |  4.19
Bond    | 0.18604    | 0.18604    | 0.18604    |   0.0 |  0.03
Kspace  | 585.92     | 585.92     | 585.92     |   0.0 | 90.38
Neigh   | 0.053873   | 0.053873   | 0.053873   |   0.0 |  0.01
Comm    | 9.6444     | 9.6444     | 9.6444     |   0.0 |  1.49
Output  | 0.087367   | 0.087367   | 0.087367   |   0.0 |  0.01
Modify  | 22.061     | 22.061     | 22.061     |   0.0 |  3.40
Other   |            | 3.184      |            |       |  0.49

Nlocal:           5541 ave        5541 max        5541 min
Histogram: 1 0 0 0 0 0 0 0 0 0
Nghost:          33505 ave       33505 max       33505 min
Histogram: 1 0 0 0 0 0 0 0 0 0
Neighs:              0 ave           0 max           0 min
Histogram: 1 0 0 0 0 0 0 0 0 0

Total # of neighbors = 0
Ave neighs/atom = 0
Ave special neighs/atom = 2.4872767
Neighbor list builds = 2330
Dangerous builds = 1
System init for write_restart ...
PPPM initialization ...
  extracting TIP4P info from pair style
  using 12-bit tables for long-range coulomb
  G vector (1/distance) = 0.28512662
  grid = 50 50 50
  stencil order = 5
  estimated absolute RMS force accuracy = 0.00038934319
  estimated relative force accuracy = 1.1724955e-06
  using double precision FFTW3
  3d grid and FFT values/proc = 185193 125000


---------------------------------------------------------------------
      Device Time Info (average): 
---------------------------------------------------------------------
Data Transfer:   2.6336 s.
Neighbor copy:   0.5791 s.
Neighbor build:  3.1083 s.
Force calc:      27.2733 s.
Device Overhead: 0.7234 s.
CPU Neighbor:    2.1632 s.
CPU Cast/Pack:   9.2535 s.
CPU Driver_Time: 0.6391 s.
CPU Idle_Time:   0.2453 s.
Average split:   1.0000.
Max Mem / Proc:  97.97 MB.
Prefetch mode:   None.
Vector width:    32.
Lanes / atom:    8.
Pair block:      256.
Neigh block:     128.
Neigh mode:      Hybrid (binning on host) with subgroup support
---------------------------------------------------------------------


--------------------------------------------------------------------------
- Using acceleration for lj/cut/tip4p/long/gpu:
-  with 1 proc(s) per device.
-  with 10 thread(s) per proc.
-  Horizontal vector operations: ENABLED
-  Shared memory system: No
--------------------------------------------------------------------------
Device 0: Quadro RTX 6000, 72 CUs, 22/23 GB, 1.8 GHZ (Mixed Precision)
--------------------------------------------------------------------------

Initializing Device and compiling on process 0...Done.
Initializing Device 0 on core 0...Done.

Generated 0 of 3 mixed pair_coeff terms from geometric mixing rule
NVT complete. Temperature: 306.692902815477 K (target: 300K)
úì Checkpoint 1 PASSED: Density = 0.891366525253073 g/cm≥

===== STAGE 1.5: Pre-Equilibration at 100 atm (50 ps, GPU) =====
üîß CRITICAL FIX: Reducing initial pressure before main ramp
Objective: Equilibrate volume at moderate pressure to prevent PPPM artifacts

Why this is needed:
  - NVT creates high pressure (~800 atm) in fixed volume
  - Direct ramp from 800Üí1 atm caused 169k atm spike (PPPM grid change)
  - Pre-equilibrating at 100 atm reduces initial pressure safely
  - Main ramp (100Üí1 atm) will then cause only ~5% box expansion
PPPM initialization ...
  extracting TIP4P info from pair style
  using 12-bit tables for long-range coulomb
  G vector (1/distance) = 0.28512662
  grid = 50 50 50
  stencil order = 5
  estimated absolute RMS force accuracy = 0.00038934319
  estimated relative force accuracy = 1.1724955e-06
  using double precision FFTW3
  3d grid and FFT values/proc = 185193 125000

--------------------------------------------------------------------------
- Using acceleration for lj/cut/tip4p/long/gpu:
-  with 1 proc(s) per device.
-  with 10 thread(s) per proc.
-  Horizontal vector operations: ENABLED
-  Shared memory system: No
--------------------------------------------------------------------------
Device 0: Quadro RTX 6000, 72 CUs, 22/23 GB, 1.8 GHZ (Mixed Precision)
--------------------------------------------------------------------------

Initializing Device and compiling on process 0...Done.
Initializing Device 0 on core 0...Done.

Generated 0 of 3 mixed pair_coeff terms from geometric mixing rule
Setting up Verlet run ...
  Unit style    : real
  Current step  : 25010
  Time step     : 2
Per MPI rank memory allocation (min/avg/max) = 58.79 | 58.79 | 58.79 Mbytes
   Step          Temp          Press          Volume         PotEng         KinEng         TotEng        Density    
     25010   306.6929      -941.71128      64000         -20620.569      3430.9674     -17189.602      0.89136653   
     26000   294.7174      -293.37539      61427.939     -20809.859      3296.9977     -17512.861      0.9286891    
     27000   300.51052     -238.99267      59572.017     -20821.458      3361.8052     -17459.653      0.95762172   
     28000   296.66187     -102.46555      58159.689     -20756.423      3318.7504     -17437.672      0.98087626   
     29000   292.9764      -307.92412      57071.307     -20751.047      3277.5212     -17473.526      0.99958211   
     30000   305.58002      386.92076      56206.164     -20819.978      3418.5176     -17401.46       1.014968     
     31000   300.46247     -573.78001      55600.127     -20909.325      3361.2676     -17548.058      1.0260311    
     32000   297.32262     -184.78269      54947.224     -21011.885      3326.1423     -17685.742      1.0382227    
     33000   294.75427      463.19183      54474.333     -20987.815      3297.4101     -17690.404      1.0472356    
     34000   302.04367      510.41288      54163.211     -20978.609      3378.9566     -17599.652      1.053251     
     35000   303.17049     -347.28342      54098.114     -20945.538      3391.5623     -17553.976      1.0545184    
     36000   297.89756      152.44609      54365.751     -21069.968      3332.5741     -17737.394      1.0493271    
     37000   300.55493      75.373742      54465.511     -21047.641      3362.3021     -17685.339      1.0474052    
     38000   302.70626     -105.54983      53999.109     -21009.724      3386.3689     -17623.355      1.0564518    
     39000   302.24095      784.84952      54323.273     -20969.743      3381.1635     -17588.579      1.0501477    
     40000   303.5114       53.926137      54400.918     -20990.907      3395.376      -17595.531      1.0486488    
     41000   303.90784      84.743579      54521.411     -21075.391      3399.8109     -17675.581      1.0463313    
     42000   300.6368       174.47195      54588.585     -20870.621      3363.2179     -17507.403      1.0450437    
     43000   301.42234      54.555746      53888.855     -20946.293      3372.0057     -17574.288      1.0586133    
     44000   301.9208      -203.39748      54182.087     -20851.14       3377.582      -17473.558      1.0528841    
     45000   307.13237     -89.668712      54396.679     -20960.591      3435.8837     -17524.707      1.0487305    
     46000   306.58453     -0.94776043     54582.73      -20891.675      3429.7551     -17461.919      1.0451558    
     47000   296.20259      323.5674       54309.211     -20826.668      3313.6124     -17513.056      1.0504196    
     48000   305.1846       59.039145      54406.623     -20842.993      3414.0941     -17428.899      1.0485388    
     49000   294.61057      137.09554      54434.998     -21079.697      3295.8026     -17783.895      1.0479923    
     50000   292.40112     -938.9166       54415.81      -21000.86       3271.0855     -17729.774      1.0483618    
     50010   295.80094     -453.26514      54413.747     -21050.205      3309.1192     -17741.085      1.0484016    
Loop time of 973.799 on 10 procs for 25000 steps with 5541 atoms

Performance: 4.436 ns/day, 5.410 hours/ns, 25.673 timesteps/s, 142.252 katom-step/s
743.9% CPU use with 1 MPI tasks x 10 OpenMP threads

MPI task timing breakdown:
Section |  min time  |  avg time  |  max time  |%varavg| %total
---------------------------------------------------------------
Pair    | 30.401     | 30.401     | 30.401     |   0.0 |  3.12
Bond    | 0.32438    | 0.32438    | 0.32438    |   0.0 |  0.03
Kspace  | 578.11     | 578.11     | 578.11     |   0.0 | 59.37
Neigh   | 0.059873   | 0.059873   | 0.059873   |   0.0 |  0.01
Comm    | 11.511     | 11.511     | 11.511     |   0.0 |  1.18
Output  | 0.013145   | 0.013145   | 0.013145   |   0.0 |  0.00
Modify  | 348.92     | 348.92     | 348.92     |   0.0 | 35.83
Other   |            | 4.459      |            |       |  0.46

Nlocal:           5541 ave        5541 max        5541 min
Histogram: 1 0 0 0 0 0 0 0 0 0
Nghost:          35505 ave       35505 max       35505 min
Histogram: 1 0 0 0 0 0 0 0 0 0
Neighs:              0 ave           0 max           0 min
Histogram: 1 0 0 0 0 0 0 0 0 0

Total # of neighbors = 0
Ave neighs/atom = 0
Ave special neighs/atom = 2.4872767
Neighbor list builds = 2325
Dangerous builds = 0
System init for write_restart ...
PPPM initialization ...
  extracting TIP4P info from pair style
  using 12-bit tables for long-range coulomb
  G vector (1/distance) = 0.28827908
  grid = 50 50 50
  stencil order = 5
  estimated absolute RMS force accuracy = 0.00033057677
  estimated relative force accuracy = 9.9552212e-07
  using double precision FFTW3
  3d grid and FFT values/proc = 205379 125000


---------------------------------------------------------------------
      Device Time Info (average): 
---------------------------------------------------------------------
Data Transfer:   3.3999 s.
Neighbor copy:   0.5945 s.
Neighbor build:  2.6715 s.
Force calc:      59.6895 s.
Device Overhead: 0.7319 s.
CPU Neighbor:    2.0605 s.
CPU Cast/Pack:   14.0319 s.
CPU Driver_Time: 0.6545 s.
CPU Idle_Time:   0.2301 s.
Average split:   1.0000.
Max Mem / Proc:  235.02 MB.
Prefetch mode:   None.
Vector width:    32.
Lanes / atom:    8.
Pair block:      256.
Neigh block:     128.
Neigh mode:      Hybrid (binning on host) with subgroup support
---------------------------------------------------------------------


--------------------------------------------------------------------------
- Using acceleration for lj/cut/tip4p/long/gpu:
-  with 1 proc(s) per device.
-  with 10 thread(s) per proc.
-  Horizontal vector operations: ENABLED
-  Shared memory system: No
--------------------------------------------------------------------------
Device 0: Quadro RTX 6000, 72 CUs, 22/23 GB, 1.8 GHZ (Mixed Precision)
--------------------------------------------------------------------------

Initializing Device and compiling on process 0...Done.
Initializing Device 0 on core 0...Done.

Generated 0 of 3 mixed pair_coeff terms from geometric mixing rule
System init for write_data ...
PPPM initialization ...
  extracting TIP4P info from pair style
  using 12-bit tables for long-range coulomb
  G vector (1/distance) = 0.28827908
  grid = 50 50 50
  stencil order = 5
  estimated absolute RMS force accuracy = 0.00033057677
  estimated relative force accuracy = 9.9552212e-07
  using double precision FFTW3
  3d grid and FFT values/proc = 205379 125000

--------------------------------------------------------------------------
- Using acceleration for lj/cut/tip4p/long/gpu:
-  with 1 proc(s) per device.
-  with 10 thread(s) per proc.
-  Horizontal vector operations: ENABLED
-  Shared memory system: No
--------------------------------------------------------------------------
Device 0: Quadro RTX 6000, 72 CUs, 22/23 GB, 1.8 GHZ (Mixed Precision)
--------------------------------------------------------------------------

Initializing Device and compiling on process 0...Done.
Initializing Device 0 on core 0...Done.

Generated 0 of 3 mixed pair_coeff terms from geometric mixing rule
WARNING: Not all mixed pair coeffs generated from mixing. Use write_data with 'pair ij' option to store all pair coeffs. (src/write_data.cpp:364)

Pre-equilibration complete:
  Density:  1.04840157384423 g/cm≥
  Pressure: -453.265141980375 atm
  Volume:   54413.7466400567 Ö≥
úì Checkpoint 2 PASSED: System stable at 100 atm

===== STAGE 2: Gentle Pressure Ramp (100 ps, GPU) =====
Ramping pressure from 100 atm Üí 1 atm with drag damping

COMPARISON TO FAILED VERSION:
  OLD: 50 atm Üí 1 atm, no pre-equil Üí 169,712 atm spike at step 51k
  NEW: 100 atm Üí 1 atm, with pre-equil Üí should be smooth (< 500 atm max)
PPPM initialization ...
  extracting TIP4P info from pair style
  using 12-bit tables for long-range coulomb
  G vector (1/distance) = 0.28827908
  grid = 50 50 50
  stencil order = 5
  estimated absolute RMS force accuracy = 0.00033057677
  estimated relative force accuracy = 9.9552212e-07
  using double precision FFTW3
  3d grid and FFT values/proc = 205379 125000

--------------------------------------------------------------------------
- Using acceleration for lj/cut/tip4p/long/gpu:
-  with 1 proc(s) per device.
-  with 10 thread(s) per proc.
-  Horizontal vector operations: ENABLED
-  Shared memory system: No
--------------------------------------------------------------------------
Device 0: Quadro RTX 6000, 72 CUs, 22/23 GB, 1.8 GHZ (Mixed Precision)
--------------------------------------------------------------------------

Initializing Device and compiling on process 0...Done.
Initializing Device 0 on core 0...Done.

Generated 0 of 3 mixed pair_coeff terms from geometric mixing rule
Setting up Verlet run ...
  Unit style    : real
  Current step  : 50010
  Time step     : 2
Per MPI rank memory allocation (min/avg/max) = 59.64 | 59.64 | 59.64 Mbytes
   Step          Temp          Press          Volume         PotEng         KinEng         TotEng        Density    
     50010   295.80094     -455.36562      54413.747     -21050.143      3309.1192     -17741.024      1.0484016    
     50500   298.40711      70.418178      54088.538     -20994.826      3338.2744     -17656.551      1.0547051    
     51000   298.87965      562.27947      53821.362     -20966.073      3343.5607     -17622.512      1.0599408    
     51500   298.20856      369.76947      54117.719     -20992.656      3336.0533     -17656.603      1.0541364    
     52000   303.00132      241.96414      54399.878     -21036.057      3389.6698     -17646.387      1.0486688    
     52500   308.4107       402.05147      54380.543     -21077.792      3450.1844     -17627.607      1.0490417    
     53000   303.00019     -66.251148      54057.903     -21034.7        3389.6571     -17645.043      1.0553028    
     53500   306.12143     -336.98578      54604.697     -21106.523      3424.5743     -17681.949      1.0447353    
     54000   301.29274      20.996929      54175.046     -21005.082      3370.5559     -17634.526      1.0530209    
     54500   299.36577      476.38721      54669.63      -20977.745      3348.9989     -17628.746      1.0434945    
     55000   297.37319     -90.135636      54250.193     -20967.449      3326.708      -17640.74       1.0515623    
     55500   290.87372     -335.48562      54225.815     -20990.191      3253.9985     -17736.193      1.052035     
     56000   298.044       -196.5431       54217.687     -20967.046      3334.2123     -17632.834      1.0521928    
     56500   304.77677      10.248082      54190.888     -21020.654      3409.5317     -17611.122      1.0527131    
     57000   302.47858      495.01139      54125.889     -20950.587      3383.8218     -17566.766      1.0539773    
     57500   297.1747      -530.76595      54377.285     -20867.863      3324.4874     -17543.375      1.0491046    
     58000   296.63093     -913.80474      54204.996     -20882.954      3318.4043     -17564.549      1.0524391    
     58500   297.1933       29.24281       54448.476     -20896.255      3324.6956     -17571.559      1.0477329    
     59000   297.39705      725.72652      54550.379     -20928.377      3326.9749     -17601.402      1.0457756    
     59500   292.59437     -326.98202      54590.998     -20835.228      3273.2474     -17561.981      1.0449975    
     60000   298.41584      1198.6663      54618.427     -20896.492      3338.3721     -17558.12       1.0444727    
     60500   299.93064     -54.308107      54508.176     -20944.671      3355.3181     -17589.353      1.0465853    
     61000   294.78843      26.423237      54574.096     -20901.822      3297.7923     -17604.029      1.0453212    
     61500   305.98668      408.19267      54442.77      -20947.241      3423.0669     -17524.174      1.0478427    
     62000   296.42069     -333.72517      54567.805     -20890.298      3316.0523     -17574.246      1.0454417    
     62500   300.02052     -149.46877      54254.332     -20917.647      3356.3236     -17561.324      1.0514821    
     63000   305.22835     -391.62972      54277.281     -21042.896      3414.5834     -17628.312      1.0510375    
     63500   301.36823      948.10404      53920.264     -21008.959      3371.4004     -17637.559      1.0579966    
     64000   302.73089     -47.486684      54116.553     -20999.802      3386.6444     -17613.157      1.0541591    
     64500   300.21042     -383.13634      54424.106     -20978.131      3358.448      -17619.683      1.048202     
     65000   296.77677      209.42846      54194.921     -20960.047      3320.0358     -17640.011      1.0526348    
     65500   304.56076      482.62601      54623.732     -21037.647      3407.1151     -17630.532      1.0443713    
     66000   296.33498      1461.5031      54537.326     -20947.406      3315.0936     -17632.313      1.0460259    
     66500   300.83527     -395.44921      54536.117     -20971.204      3365.4381     -17605.766      1.0460491    
     67000   294.6058      -656.61758      54659.306     -20912.035      3295.7493     -17616.286      1.0436916    
     67500   300.87922      470.86612      54378.774     -20960.889      3365.9298     -17594.959      1.0490758    
     68000   299.81852     -323.3569       54855.306     -20906.625      3354.0639     -17552.561      1.0399624    
     68500   297.12013     -604.13306      54833.735     -20835.383      3323.877      -17511.506      1.0403715    
     69000   298.54982      635.14637      54219.631     -20860.02       3339.8709     -17520.149      1.052155     
     69500   299.95959     -543.90104      54061.015     -20903.656      3355.6419     -17548.014      1.0552421    
     70000   298.11046      622.33688      54252.13      -20900.534      3334.9558     -17565.578      1.0515247    
     70500   299.3419      -669.78325      54369.565     -20913.039      3348.7319     -17564.307      1.0492535    
     71000   298.87291     -359.52589      54156.885     -20922.784      3343.4853     -17579.299      1.053374     
     71500   302.12625      505.16752      54161.597     -20951.803      3379.8803     -17571.922      1.0532824    
     72000   299.99101      130.30165      54504.362     -20902.806      3355.9934     -17546.813      1.0466586    
     72500   304.13612     -168.30045      54203.06      -20961.697      3402.3647     -17559.332      1.0524767    
     73000   299.0084       348.67777      54149.65      -20914.821      3345.001      -17569.82       1.0535148    
     73500   298.97272     -324.60819      54711.215     -20893.994      3344.6019     -17549.393      1.0427013    
     74000   295.45666     -138.61189      54401.867     -20855.312      3305.2678     -17550.045      1.0486305    
     74500   296.14691     -270.10826      54631.441     -20914.293      3312.9896     -17601.303      1.0442239    
     75000   300.03623     -225.666        54961.342     -20952.531      3356.4994     -17596.032      1.0379561    
     75500   301.83748      418.79917      54652.182     -20950.356      3376.6499     -17573.706      1.0438276    
     76000   302.26612      123.99971      54639.57      -21024.676      3381.4451     -17643.231      1.0440686    
     76500   296.11668      344.66371      54767.01      -20958.822      3312.6514     -17646.171      1.0416391    
     77000   297.92345      44.881487      54473.117     -20947.892      3332.8637     -17615.028      1.0472589    
     77500   304.65895     -68.761176      54465.724     -21001.328      3408.2137     -17593.114      1.0474011    
     78000   299.42731      147.41396      54355.507     -20919.382      3349.6874     -17569.695      1.0495249    
     78500   294.54448      142.1135       54560.314     -20894.855      3295.0633     -17599.792      1.0455852    
     79000   297.25207     -91.278889      54255.389     -20932.212      3325.353      -17606.859      1.0514616    
     79500   302.93978     -144.19443      54477.106     -20994.352      3388.9813     -17605.371      1.0471822    
     80000   299.56714     -156.40318      54963.324     -21009.013      3351.2517     -17657.761      1.0379186    
     80500   302.05352      43.495456      54784.636     -21047.981      3379.0667     -17668.914      1.0413039    
     81000   301.50081     -367.85349      54648.719     -21039.357      3372.8835     -17666.473      1.0438938    
     81500   300.94072      377.65544      54644.508     -20975.856      3366.6178     -17609.238      1.0439742    
     82000   298.36059      167.88543      54322.991     -20954.195      3337.754      -17616.441      1.0501531    
     82500   303.55646     -746.68494      54478.681     -21005.998      3395.8801     -17610.118      1.047152     
     83000   298.58346     -144.11362      54302.058     -20945.021      3340.2473     -17604.773      1.0505579    
     83500   306.48888      154.34558      54225.973     -21023.678      3428.685      -17594.993      1.052032     
     84000   300.03296     -178.29128      54165.575     -20917.434      3356.4627     -17560.971      1.0532051    
     84500   300.80722     -525.81028      54570.205     -20953.519      3365.1244     -17588.395      1.0453957    
     85000   302.98308     -51.165737      54243.326     -20963.96       3389.4657     -17574.494      1.0516954    
     85500   292.12668     -304.52346      54039.228     -20810.912      3268.0153     -17542.897      1.0556675    
     86000   298.70331      902.19566      54213.048     -20877.69       3341.588      -17536.102      1.0522828    
     86500   300.48811      767.84329      54356.621     -20900.449      3361.5545     -17538.895      1.0495034    
     87000   300.03099      73.225941      54503.626     -20942.376      3356.4407     -17585.935      1.0466727    
     87500   299.91234      510.00756      54539.622     -20924.498      3355.1134     -17569.385      1.0459819    
     88000   299.73207      333.3895       54187.633     -20908.059      3353.0967     -17554.962      1.0527763    
     88500   303.54157      186.50144      54419.525     -20967.433      3395.7136     -17571.719      1.0482903    
     89000   302.41932      29.253306      54554.664     -20924.951      3383.1589     -17541.792      1.0456935    
     89500   300.22834      115.03209      54528.518     -20919.612      3358.6485     -17560.964      1.0461949    
     90000   298.47907     -63.438921      54296.727     -20953.655      3339.0794     -17614.576      1.0506611    
     90500   302.69659      360.84232      54569.988     -20996.195      3386.2608     -17609.935      1.0453999    
     91000   299.40737     -228.83604      54645.287     -20956.253      3349.4643     -17606.789      1.0439593    
     91500   307.4668       65.328779      54553.297     -21088.256      3439.625      -17648.631      1.0457197    
     92000   301.26084      55.920875      54403.374     -20998          3370.199      -17627.801      1.0486015    
     92500   298.3191       177.23689      54542.923     -20989.381      3337.2898     -17652.091      1.0459186    
     93000   295.91026     -549.64124      54711.995     -20949.941      3310.3422     -17639.598      1.0426865    
     93500   300.97143      43.719917      54609.043     -21004.137      3366.9614     -17637.176      1.0446522    
     94000   299.89215     -341.8014       54509.2       -20951.628      3354.8875     -17596.74       1.0465657    
     94500   298.68633     -133.98215      54252.424     -20998.31       3341.398      -17656.912      1.0515191    
     95000   298.21205      232.47899      54018.175     -20962.124      3336.0922     -17626.032      1.056079     
     95500   307.93916     -14.641446      54262.873     -21031.291      3444.9093     -17586.381      1.0513166    
     96000   301.31122     -32.968241      54338.588     -20979.127      3370.7627     -17608.365      1.0498517    
     96500   299.18021      202.34837      54374.761     -20913.953      3346.9231     -17567.03       1.0491533    
     97000   299.13493     -317.58175      54575.486     -20915.113      3346.4165     -17568.697      1.0452945    
     97500   301.33163      1339.4273      54635.034     -21006.421      3370.9909     -17635.43       1.0441553    
     98000   300.9675       183.0118       54707.644     -21022.977      3366.9174     -17656.06       1.0427694    
     98500   297.93341      117.98759      54408.348     -21010.8        3332.9752     -17677.825      1.0485056    
     99000   293.97253     -338.57421      54617.523     -20955.391      3288.6648     -17666.727      1.04449      
     99500   297.1458      -171.54125      54621.461     -20917.189      3324.1641     -17593.025      1.0444147    
    100000   305.73134     -370.4158       54292.664     -21012.204      3420.2104     -17591.993      1.0507397    
    100010   298.46661      311.74649      54279.464     -20932.813      3338.9401     -17593.873      1.0509952    
Loop time of 2012.84 on 10 procs for 50000 steps with 5541 atoms

Performance: 4.292 ns/day, 5.591 hours/ns, 24.841 timesteps/s, 137.641 katom-step/s
737.9% CPU use with 1 MPI tasks x 10 OpenMP threads

MPI task timing breakdown:
Section |  min time  |  avg time  |  max time  |%varavg| %total
---------------------------------------------------------------
Pair    | 60.974     | 60.974     | 60.974     |   0.0 |  3.03
Bond    | 0.61657    | 0.61657    | 0.61657    |   0.0 |  0.03
Kspace  | 1200       | 1200       | 1200       |   0.0 | 59.62
Neigh   | 0.11595    | 0.11595    | 0.11595    |   0.0 |  0.01
Comm    | 23         | 23         | 23         |   0.0 |  1.14
Output  | 0.04953    | 0.04953    | 0.04953    |   0.0 |  0.00
Modify  | 719.05     | 719.05     | 719.05     |   0.0 | 35.72
Other   |            | 9.035      |            |       |  0.45

Nlocal:           5541 ave        5541 max        5541 min
Histogram: 1 0 0 0 0 0 0 0 0 0
Nghost:          35661 ave       35661 max       35661 min
Histogram: 1 0 0 0 0 0 0 0 0 0
Neighs:              0 ave           0 max           0 min
Histogram: 1 0 0 0 0 0 0 0 0 0

Total # of neighbors = 0
Ave neighs/atom = 0
Ave special neighs/atom = 2.4872767
Neighbor list builds = 4664
Dangerous builds = 0
System init for write_restart ...
PPPM initialization ...
  extracting TIP4P info from pair style
  using 12-bit tables for long-range coulomb
  G vector (1/distance) = 0.28832264
  grid = 50 50 50
  stencil order = 5
  estimated absolute RMS force accuracy = 0.00032980032
  estimated relative force accuracy = 9.9318388e-07
  using double precision FFTW3
  3d grid and FFT values/proc = 205379 125000


---------------------------------------------------------------------
      Device Time Info (average): 
---------------------------------------------------------------------
Data Transfer:   6.9283 s.
Neighbor copy:   1.1738 s.
Neighbor build:  5.3691 s.
Force calc:      121.5550 s.
Device Overhead: 1.6349 s.
CPU Neighbor:    4.0536 s.
CPU Cast/Pack:   27.9083 s.
CPU Driver_Time: 1.4851 s.
CPU Idle_Time:   0.4970 s.
Average split:   1.0000.
Max Mem / Proc:  139.74 MB.
Prefetch mode:   None.
Vector width:    32.
Lanes / atom:    8.
Pair block:      256.
Neigh block:     128.
Neigh mode:      Hybrid (binning on host) with subgroup support
---------------------------------------------------------------------


--------------------------------------------------------------------------
- Using acceleration for lj/cut/tip4p/long/gpu:
-  with 1 proc(s) per device.
-  with 10 thread(s) per proc.
-  Horizontal vector operations: ENABLED
-  Shared memory system: No
--------------------------------------------------------------------------
Device 0: Quadro RTX 6000, 72 CUs, 22/23 GB, 1.8 GHZ (Mixed Precision)
--------------------------------------------------------------------------

Initializing Device and compiling on process 0...Done.
Initializing Device 0 on core 0...Done.

Generated 0 of 3 mixed pair_coeff terms from geometric mixing rule
System init for write_data ...
PPPM initialization ...
  extracting TIP4P info from pair style
  using 12-bit tables for long-range coulomb
  G vector (1/distance) = 0.28832264
  grid = 50 50 50
  stencil order = 5
  estimated absolute RMS force accuracy = 0.00032980032
  estimated relative force accuracy = 9.9318388e-07
  using double precision FFTW3
  3d grid and FFT values/proc = 205379 125000

--------------------------------------------------------------------------
- Using acceleration for lj/cut/tip4p/long/gpu:
-  with 1 proc(s) per device.
-  with 10 thread(s) per proc.
-  Horizontal vector operations: ENABLED
-  Shared memory system: No
--------------------------------------------------------------------------
Device 0: Quadro RTX 6000, 72 CUs, 22/23 GB, 1.8 GHZ (Mixed Precision)
--------------------------------------------------------------------------

Initializing Device and compiling on process 0...Done.
Initializing Device 0 on core 0...Done.

Generated 0 of 3 mixed pair_coeff terms from geometric mixing rule
WARNING: Not all mixed pair coeffs generated from mixing. Use write_data with 'pair ij' option to store all pair coeffs. (src/write_data.cpp:364)

Pressure ramp complete:
  Density:  1.05099523471212 g/cm≥
  Pressure: 311.746490404839 atm
  Volume:   54279.4636284177 Ö≥
  Box size: 37.862723430687 Ö
úì Checkpoint 3 PASSED: Pressure ramp successful, liquid phase maintained

===== STAGE 3: NPT Equilibration (1000 ps, GPU) =====
Equilibrating at 300K, 1 atm with improved pressure control

Strategy:
  Phase 1 (400 ps): Higher damping for gentle pressure equilibration
  Phase 2 (600 ps): Standard damping for final equilibration

Phase 1: Gentle pressure equilibration (400 ps, pdamp=5000)...
PPPM initialization ...
  extracting TIP4P info from pair style
  using 12-bit tables for long-range coulomb
  G vector (1/distance) = 0.28832264
  grid = 50 50 50
  stencil order = 5
  estimated absolute RMS force accuracy = 0.00032980032
  estimated relative force accuracy = 9.9318388e-07
  using double precision FFTW3
  3d grid and FFT values/proc = 205379 125000

--------------------------------------------------------------------------
- Using acceleration for lj/cut/tip4p/long/gpu:
-  with 1 proc(s) per device.
-  with 10 thread(s) per proc.
-  Horizontal vector operations: ENABLED
-  Shared memory system: No
--------------------------------------------------------------------------
Device 0: Quadro RTX 6000, 72 CUs, 22/23 GB, 1.8 GHZ (Mixed Precision)
--------------------------------------------------------------------------

Initializing Device and compiling on process 0...Done.
Initializing Device 0 on core 0...Done.

Generated 0 of 3 mixed pair_coeff terms from geometric mixing rule
Setting up Verlet run ...
  Unit style    : real
  Current step  : 100010
  Time step     : 2
Per MPI rank memory allocation (min/avg/max) = 59.64 | 59.64 | 59.64 Mbytes
   Step          Temp          Press          Volume         PotEng         KinEng         TotEng        Density    
    100010   298.46661      300.20537      54279.464     -20932.852      3338.9401     -17593.912      1.0509952    
    101000   305.90817      618.81643      54676.948     -20981.814      3422.1886     -17559.626      1.0433548    
    102000   298.64831     -234.17216      54965.435     -20886.67       3340.9727     -17545.697      1.0378788    
    103000   301.04293      590.36312      54409.69      -21064.385      3367.7613     -17696.624      1.0484797    
    104000   299.34996     -877.14489      55014.04      -20967.848      3348.822      -17619.026      1.0369618    
    105000   299.02073      503.9227       54567.63      -20892.035      3345.1389     -17546.896      1.045445     
    106000   302.03904     -429.15648      54181.53      -21032.488      3378.9048     -17653.584      1.0528949    
    107000   297.57607      330.71866      54004.762     -21102.811      3328.9776     -17773.833      1.0563412    
    108000   300.95317      49.077914      54484.999     -20981.811      3366.7572     -17615.054      1.0470305    
    109000   313.81147      222.21602      54762.036     -21041.632      3510.6027     -17531.03       1.0417337    
    110000   302.82927     -219.66746      54870.471     -20973.707      3387.745      -17585.962      1.039675     
    111000   302.23621      67.335438      54748.826     -20910.58       3381.1104     -17529.469      1.041985     
    112000   296.99466      832.47545      54305.673     -21012.477      3322.4734     -17690.004      1.050488     
    113000   300.02228      566.19793      54769.787     -21002.626      3356.3433     -17646.283      1.0415863    
    114000   298.9197      -663.58526      55010.853     -20982.776      3344.0087     -17638.768      1.0370219    
    115000   299.36106     -206.9944       54416.857     -21018.097      3348.9462     -17669.15       1.0483416    
    116000   294.15013      695.23436      53975.496     -20890.716      3290.6517     -17600.065      1.056914     
    117000   299.50922      573.66727      54367.98      -20950.669      3350.6037     -17600.065      1.0492841    
    118000   297.37124     -472.83723      54273.22      -20913.629      3326.6862     -17586.943      1.0511161    
    119000   300.63082      647.79215      54583.156     -20968.239      3363.151      -17605.088      1.0451477    
    120000   298.33906     -559.47977      54890.746     -20942.16       3337.5131     -17604.647      1.039291     
    121000   299.17387     -107.88712      54256.209     -20995.726      3346.8521     -17648.874      1.0514457    
    122000   300.12492     -353.13246      54028.837     -20967.677      3357.4915     -17610.185      1.0558705    
    123000   296.87017     -47.470324      54649.42      -20900.03       3321.0807     -17578.949      1.0438804    
    124000   295.40605     -492.71777      54821.208     -20986.28       3304.7016     -17681.579      1.0406093    
    125000   300.73339     -139.96725      54390.177     -20936.013      3364.2984     -17571.714      1.0488559    
    126000   295.90397     -124.13905      54277.924     -20983.618      3310.2719     -17673.346      1.051025     
    127000   297.56879     -116.32706      54527.033     -20934.315      3328.8961     -17605.419      1.0462234    
    128000   301.20109     -9.9259829      54378.319     -20969.282      3369.5306     -17599.752      1.0490846    
    129000   298.50326      330.23371      54990.739     -20946.656      3339.35       -17607.306      1.0374012    
    130000   298.67821      33.803577      54813.352     -21040.309      3341.3072     -17699.002      1.0407584    
    131000   303.25099     -782.37417      54077.666     -21025.098      3392.4628     -17632.635      1.0549172    
    132000   295.11039      463.4919       54381.958     -20976.188      3301.3941     -17674.794      1.0490144    
    133000   303.71143      265.70067      54642.662     -20839.21       3397.6138     -17441.596      1.0440095    
    134000   302.77656      426.2704       54249.985     -21038.577      3387.1554     -17651.422      1.0515663    
    135000   291.5819      -162.51834      54310.147     -21090.832      3261.9209     -17828.911      1.0504015    
    136000   298.63495     -85.617983      54354.375     -20945.251      3340.8233     -17604.428      1.0495468    
    137000   302.45312      134.57821      54669.856     -21036.866      3383.537      -17653.328      1.0434902    
    138000   302.37327      261.90336      54748.163     -20842.688      3382.6438     -17460.045      1.0419977    
    139000   299.16846     -206.64279      53925.893     -20907.27       3346.7916     -17560.478      1.0578862    
    140000   298.90674     -399.99785      54067.258     -21008.487      3343.8637     -17664.623      1.0551202    
    141000   299.77393      714.43328      54455.385     -20958.992      3353.5649     -17605.428      1.0475999    
    142000   299.03681     -186.22065      54861.536     -20809.841      3345.3189     -17464.522      1.0398443    
    143000   294.18611      355.83856      54869.215     -21008.126      3291.0542     -17717.072      1.0396988    
    144000   299.59237      889.56486      54697.252     -20959.851      3351.5339     -17608.317      1.0429675    
    145000   300.23456     -504.55539      54173.518     -20872.957      3358.7181     -17514.239      1.0530506    
    146000   294.65753     -593.37383      54301.245     -20864.815      3296.3279     -17568.487      1.0505737    
    147000   300.1375      -719.63169      55120.24      -20840.122      3357.6322     -17482.489      1.0349639    
    148000   299.22871     -156.2157       54922.416     -20829.576      3347.4656     -17482.111      1.0386917    
    149000   301.06083     -273.75888      54947.853     -20966.923      3367.9616     -17598.961      1.0382109    
    150000   293.81474     -555.0867       54580.392     -20902.557      3286.8997     -17615.657      1.0452006    
    151000   297.97055      878.92653      54656.83      -20991.31       3333.3906     -17657.919      1.0437389    
    152000   296.48991      662.51779      55385.996     -20879.259      3316.8268     -17562.432      1.0299979    
    153000   296.15358      374.95856      54643.769     -21009.321      3313.0642     -17696.256      1.0439883    
    154000   292.41841     -380.90607      54313.938     -21004.099      3271.2789     -17732.82       1.0503281    
    155000   295.90828     -207.32335      53950.428     -20898.599      3310.32       -17588.279      1.0574051    
    156000   294.90394     -469.18378      53965.865     -20913.194      3299.0845     -17614.109      1.0571026    
    157000   299.14868      235.22295      54001.995     -20936.026      3346.5703     -17589.455      1.0563954    
    158000   290.91194      431.14894      54309.349     -21024.6        3254.4261     -17770.174      1.0504169    
    159000   294.88132     -386.19069      54619.642     -20949.753      3298.8314     -17650.922      1.0444495    
    160000   301.7521      -606.6684       54423.619     -20954.217      3375.6947     -17578.522      1.0482114    
    161000   300.70581      278.42859      54683.909     -20940.325      3363.9899     -17576.335      1.043222     
    162000   295.5972       206.62548      54830.661     -20873.567      3306.84       -17566.727      1.0404299    
    163000   297.08622     -106.80972      54005.207     -20946.102      3323.4977     -17622.604      1.0563326    
    164000   301.28909      285.02519      54294.632     -20813.452      3370.5151     -17442.937      1.0507016    
    165000   297.2344       375.23795      54547.368     -21018.519      3325.1553     -17693.364      1.0458334    
    166000   302.42212     -406.68279      54633.455     -20908.166      3383.1902     -17524.976      1.0441854    
    167000   299.161        295.01887      54653.063     -21012.153      3346.7081     -17665.445      1.0438108    
    168000   296.38591     -753.83923      54691.627     -21120.455      3315.6633     -17804.792      1.0430748    
    169000   299.83085      574.32461      54623.196     -21040.743      3354.2018     -17686.541      1.0443815    
    170000   295.99481      229.8627       54456.702     -20977.129      3311.288      -17665.841      1.0475746    
    171000   301.50472     -771.40261      54987.004     -20994.669      3372.9273     -17621.741      1.0374717    
    172000   299.49863      494.61796      54759.309     -20893.309      3350.4852     -17542.824      1.0417856    
    173000   294.72654      39.439105      54612.55      -20991.434      3297.0999     -17694.334      1.0445851    
    174000   299.21694     -375.15551      54846.788     -20878.772      3347.334      -17531.438      1.0401239    
    175000   299.08103      55.272485      54479.879     -20928.002      3345.8136     -17582.188      1.0471289    
    176000   303.56471      17.836424      54425.556     -20891.165      3395.9724     -17495.193      1.0481741    
    177000   299.43583     -883.3741       54761.445     -20975.918      3349.7827     -17626.135      1.0417449    
    178000   297.96367      751.14028      54615.478     -20959.206      3333.3136     -17625.892      1.0445291    
    179000   303.99967      442.67816      54481.692     -20962.475      3400.8383     -17561.637      1.0470941    
    180000   300.80782     -648.91771      54364.425     -21136.817      3365.1311     -17771.686      1.0493527    
    181000   303.02135      356.27306      54372.358     -20971.251      3389.8938     -17581.357      1.0491996    
    182000   293.91975     -94.103725      54395.987     -20907.953      3288.0744     -17619.879      1.0487439    
    183000   289.61327      356.85445      54218.331     -20894.794      3239.8979     -17654.896      1.0521803    
    184000   307.52476     -752.14957      54530.091     -20856.093      3440.2733     -17415.82       1.0461647    
    185000   300.69671      36.695114      54388.673     -20888.667      3363.8881     -17524.779      1.0488849    
    186000   296.44039      462.27344      54363.788     -20995.273      3316.2727     -17679          1.049365     
    187000   305.61389     -165.3839       54234.72      -20904.57       3418.8965     -17485.673      1.0518623    
    188000   304.61738     -510.28996      53914.718     -20865.483      3407.7486     -17457.734      1.0581055    
    189000   290.30681     -126.84292      54214.853     -20890.816      3247.6565     -17643.159      1.0522478    
    190000   299.11923      181.28799      54640.598     -20864.621      3346.2409     -17518.38       1.0440489    
    191000   297.91885     -972.52719      54826.206     -20904.592      3332.8122     -17571.78       1.0405144    
    192000   297.53927     -580.75685      54812.092     -20938.782      3328.5659     -17610.216      1.0407823    
    193000   297.97865      443.21245      54483.283     -20900.183      3333.4812     -17566.702      1.0470635    
    194000   300.67471      290.03085      54123.964     -20907.416      3363.642      -17543.774      1.0540148    
    195000   300.27991     -489.11865      54546.798     -20918.658      3359.2254     -17559.432      1.0458443    
    196000   304.86152      152.47915      54211.722     -21089.965      3410.4797     -17679.485      1.0523085    
    197000   302.1179       99.276116      54228.802     -20991.571      3379.787      -17611.784      1.0519771    
    198000   298.12236      313.24701      54728.684     -20958.773      3335.089      -17623.685      1.0423685    
    199000   299.40893      417.39728      54568         -20814.29       3349.4817     -17464.808      1.0454379    
    200000   291.25556      496.85602      54637.942     -20863.343      3258.2701     -17605.073      1.0440997    
    201000   296.56188      399.29821      54840.395     -21095.354      3317.6319     -17777.723      1.0402452    
    202000   296.80176      599.93386      54355.008     -20956.956      3320.3154     -17636.64       1.0495345    
    203000   307.23736     -824.23755      54646.282     -20869.898      3437.0583     -17432.839      1.0439403    
    204000   305.05183     -392.49297      54697.132     -21016.141      3412.6087     -17603.532      1.0429698    
    205000   302.3078      -396.02975      54102.115     -21129.52       3381.9113     -17747.608      1.0544404    
    206000   302.60089      47.780935      53982.795     -20954.013      3385.1902     -17568.822      1.0567711    
    207000   297.94651     -58.523449      54240.48      -20856.586      3333.1217     -17523.464      1.0517506    
    208000   299.64504     -273.8245       54353.476     -20913.781      3352.1231     -17561.658      1.0495641    
    209000   306.03327     -306.35794      54738.697     -20904.799      3423.5881     -17481.211      1.0421778    
    210000   297.12121      98.917429      54638.276     -20943.158      3323.889      -17619.269      1.0440933    
    211000   298.29003      174.67643      54877.408     -20942.298      3336.9647     -17605.334      1.0395436    
    212000   304.96653      58.613288      54661.393     -20909.16       3411.6545     -17497.506      1.0436517    
    213000   294.47565      281.02061      54285.462     -21009.578      3294.2932     -17715.285      1.0508791    
    214000   294.75173     -145.36762      54836.766     -20909.489      3297.3818     -17612.107      1.040314     
    215000   302.19427     -1084.0553      54447.043     -20924.956      3380.6413     -17544.315      1.0477604    
    216000   296.44539      37.693888      54058.544     -21126.427      3316.3287     -17810.099      1.0552903    
    217000   296.83704      151.50005      54366.167     -20877.247      3320.7101     -17556.537      1.0493191    
    218000   293.10328      687.35798      54279.409     -20965.215      3278.9406     -17686.274      1.0509963    
    219000   299.69869     -119.49383      54336.15      -21047.112      3352.7233     -17694.389      1.0498988    
    220000   292.31106      834.86685      54590.448     -20899.689      3270.078      -17629.611      1.0450081    
    221000   299.50484      450.06555      54727.653     -20933.643      3350.5547     -17583.088      1.0423882    
    222000   304.74543      892.58495      54443.607     -20925.871      3409.1811     -17516.69       1.0478266    
    223000   296.69699      178.13293      54534.645     -21007.914      3319.1433     -17688.771      1.0460774    
    224000   298.71733     -158.26279      54944.931     -20881.496      3341.7448     -17539.751      1.0382661    
    225000   297.81208     -376.83072      54508.249     -20952.513      3331.6178     -17620.895      1.0465839    
    226000   300.23731     -252.93132      54279.098     -20990.131      3358.7488     -17631.382      1.0510023    
    227000   304.98934      79.800099      54194.481     -20772.913      3411.9097     -17361.003      1.0526433    
    228000   299.24115     -371.21876      54473.563     -20851.676      3347.6048     -17504.071      1.0472503    
    229000   303.22924      805.38238      54134.802     -20963.56       3392.2195     -17571.341      1.0538038    
    230000   299.23366      454.58952      54244.199     -20928.065      3347.521      -17580.544      1.0516785    
    231000   304.43376      695.75556      54925.85      -20962.276      3405.6944     -17556.582      1.0386268    
    232000   295.57196      172.12623      55058.444     -20975.04       3306.5576     -17668.483      1.0361255    
    233000   298.3796       73.048111      53966.062     -20889.27       3337.9667     -17551.303      1.0570988    
    234000   296.52573      155.72681      53911.097     -20894.496      3317.2274     -17577.269      1.0581765    
    235000   298.75236      149.74546      54183.281     -20926.241      3342.1367     -17584.104      1.0528609    
    236000   299.2796       337.70132      54450.97      -21098.172      3348.035      -17750.137      1.0476849    
    237000   303.1272       398.15665      54558.406     -21023.198      3391.0779     -17632.12       1.0456218    
    238000   294.55748      71.683238      54238.872     -20867.254      3295.2087     -17572.045      1.0517818    
    239000   299.16667      408.24462      54120.891     -21062.764      3346.7716     -17715.992      1.0540746    
    240000   302.08212      118.6014       54635.756     -20935.585      3379.3867     -17556.198      1.0441414    
    241000   303.32214      76.115246      55021.23      -20865.292      3393.2587     -17472.034      1.0368263    
    242000   302.30988      364.23358      54775.591     -20890.7        3381.9347     -17508.765      1.0414759    
    243000   302.00032     -661.3059       54378.238     -20814.586      3378.4716     -17436.115      1.0490862    
    244000   298.30089      571.26376      54279.285     -20961.928      3337.0862     -17624.842      1.0509987    
    245000   303.602       -219.09066      54985.388     -21007.162      3396.3895     -17610.772      1.0375021    
    246000   299.81331      631.50588      54775.835     -20959.821      3354.0055     -17605.816      1.0414713    
    247000   297.01521      586.01003      54091.627     -20914.742      3322.7032     -17592.039      1.0546449    
    248000   302.96718     -635.70429      54492.112     -20991.178      3389.2878     -17601.89       1.0468939    
    249000   293.84281     -344.90425      54935.866     -21007.532      3287.2137     -17720.319      1.0384374    
    250000   301.13629      413.278        54886.257     -20938.758      3368.8057     -17569.953      1.039376     
    251000   302.36214     -1026.1652      54337.397     -20961.606      3382.5192     -17579.087      1.0498747    
    252000   300.95314     -655.73685      54610.487     -20958.187      3366.7568     -17591.43       1.0446246    
    253000   292.47121     -105.26206      54952.517     -20895.135      3271.8696     -17623.266      1.0381227    
    254000   300.34863      1063.0032      54068.643     -20868.649      3359.9942     -17508.654      1.0550932    
    255000   297.0292      -76.241193      54511.459     -20924.469      3322.8598     -17601.609      1.0465223    
    256000   295.59155     -61.374883      54745.823     -21031.052      3306.7768     -17724.275      1.0420422    
    257000   299.11778      409.2504       54338.801     -20968.693      3346.2246     -17622.468      1.0498476    
    258000   295.58344      772.33391      54168.917     -21096.602      3306.6861     -17789.916      1.0531401    
    259000   300.54096     -439.37894      55002.233     -20932.513      3362.1458     -17570.368      1.0371844    
    260000   298.62939      565.42069      54583.888     -21053.116      3340.7611     -17712.355      1.0451336    
    261000   304.6415       418.05878      54327.77      -20996.237      3408.0184     -17588.218      1.0500607    
    262000   300.17648      277.59643      55045.745     -20952.488      3358.0683     -17594.42       1.0363645    
    263000   300.05511     -1186.0593      55084.765     -20949.336      3356.7106     -17592.625      1.0356304    
    264000   299.3339      -119.43384      54749.453     -20889.11       3348.6424     -17540.468      1.0419731    
    265000   300.17091     -127.67261      54658.711     -20907.857      3358.0059     -17549.851      1.0437029    
    266000   298.00517      424.98558      54593.499     -20917.571      3333.778      -17583.793      1.0449496    
    267000   306.73548      353.69341      54196.974     -20926.76       3431.4437     -17495.317      1.0525949    
    268000   300.59436     -851.56051      54690.687     -20945.084      3362.7431     -17582.341      1.0430927    
    269000   298.30973      325.21862      54805.468     -21042.457      3337.185      -17705.272      1.0409081    
    270000   296.5003      -6.3285572      54139.441     -20769.862      3316.943      -17452.919      1.0537135    
    271000   312.15762     -44.104341      54412.687     -20789.463      3492.1011     -17297.362      1.048422     
    272000   304.44818     -83.919917      54443.946     -20961.397      3405.8557     -17555.541      1.04782      
    273000   298.70612     -1013.6655      54417.946     -20922.023      3341.6194     -17580.403      1.0483207    
    274000   302.56454      350.00929      54697.684     -20985.193      3384.7835     -17600.409      1.0429593    
    275000   304.20308      974.18742      54707.589     -20915.404      3403.1138     -17512.29       1.0427705    
    276000   297.53899      433.68831      53992.313     -20934.56       3328.5628     -17605.997      1.0565848    
    277000   298.90236     -735.10261      54789.819     -21035.823      3343.8147     -17692.008      1.0412054    
    278000   302.40436      79.819375      54892.485     -20805.527      3382.9916     -17422.535      1.0392581    
    279000   304.82598      1091.7995      54320.262     -20952.174      3410.0822     -17542.091      1.0502059    
    280000   298.48925     -18.358007      54291.605     -20948.37       3339.1934     -17609.177      1.0507602    
    281000   305.2473       294.20445      54269.026     -20855.502      3414.7955     -17440.706      1.0511974    
    282000   304.59202     -672.09318      54502.392     -20935.202      3407.4649     -17527.737      1.0466964    
    283000   298.90837      60.459287      54841.338     -20976.822      3343.882      -17632.94       1.0402273    
    284000   304.08551      112.23273      54991.605     -20852.755      3401.7985     -17450.957      1.0373849    
    285000   300.75942      454.49305      54539.915     -21132.323      3364.5897     -17767.733      1.0459763    
    286000   305.96069     -350.84775      54635.816     -20853.831      3422.7762     -17431.055      1.0441403    
    287000   302.45138     -604.7258       54224.695     -21012.023      3383.5175     -17628.505      1.0520568    
    288000   296.12793     -821.50688      54330.867     -21008.009      3312.7773     -17695.231      1.0500009    
    289000   298.39122     -271.20831      54213.873     -21043.016      3338.0966     -17704.919      1.0522668    
    290000   300.26279     -637.58924      54472.297     -20908.806      3359.0339     -17549.772      1.0472747    
    291000   301.41863     -569.878        54550.694     -21042.292      3371.9642     -17670.328      1.0457696    
    292000   299.51736     -430.75745      54133.294     -21082.298      3350.6948     -17731.603      1.0538331    
    293000   300.62358      290.01535      54416.819     -21155.188      3363.07       -17792.118      1.0483424    
    294000   304.47662     -149.93564      55378.234     -20943.86       3406.1739     -17537.686      1.0301422    
    295000   297.39196     -804.00971      55031.26      -20911.213      3326.9179     -17584.295      1.0366373    
    296000   306.0103       210.43034      54159.615     -20987.945      3423.3311     -17564.614      1.053321     
    297000   292.40623      883.43684      54378.207     -20927.124      3271.1427     -17655.981      1.0490868    
    298000   301.82268      108.91652      54716.473     -20863.897      3376.4843     -17487.413      1.0426012    
    299000   296.59286     -222.26692      54527.743     -20931.315      3317.9784     -17613.336      1.0462098    
    300000   297.84954      796.13423      54521.968     -20949.758      3332.0369     -17617.721      1.0463206    
    300010   299.26551      831.1313       54524.224     -20944.438      3347.8774     -17596.56       1.0462773    
Loop time of 7869.49 on 10 procs for 200000 steps with 5541 atoms

Performance: 4.392 ns/day, 5.465 hours/ns, 25.415 timesteps/s, 140.822 katom-step/s
743.4% CPU use with 1 MPI tasks x 10 OpenMP threads

MPI task timing breakdown:
Section |  min time  |  avg time  |  max time  |%varavg| %total
---------------------------------------------------------------
Pair    | 238.81     | 238.81     | 238.81     |   0.0 |  3.03
Bond    | 2.261      | 2.261      | 2.261      |   0.0 |  0.03
Kspace  | 4703.6     | 4703.6     | 4703.6     |   0.0 | 59.77
Neigh   | 0.47186    | 0.47186    | 0.47186    |   0.0 |  0.01
Comm    | 92.155     | 92.155     | 92.155     |   0.0 |  1.17
Output  | 0.72963    | 0.72963    | 0.72963    |   0.0 |  0.01
Modify  | 2795.7     | 2795.7     | 2795.7     |   0.0 | 35.53
Other   |            | 35.76      |            |       |  0.45

Nlocal:           5541 ave        5541 max        5541 min
Histogram: 1 0 0 0 0 0 0 0 0 0
Nghost:          35591 ave       35591 max       35591 min
Histogram: 1 0 0 0 0 0 0 0 0 0
Neighs:              0 ave           0 max           0 min
Histogram: 1 0 0 0 0 0 0 0 0 0

Total # of neighbors = 0
Ave neighs/atom = 0
Ave special neighs/atom = 2.4872767
Neighbor list builds = 18574
Dangerous builds = 0

Phase 1 complete:
  Density:  1.04627729978679 g/cm≥
  Pressure: 831.131295810732 atm

Phase 2: Final equilibration (600 ps, pdamp=2000)...
PPPM initialization ...
  extracting TIP4P info from pair style
  using 12-bit tables for long-range coulomb
  G vector (1/distance) = 0.28824331
  grid = 50 50 50
  stencil order = 5
  estimated absolute RMS force accuracy = 0.00033121559
  estimated relative force accuracy = 9.9744591e-07
  using double precision FFTW3
  3d grid and FFT values/proc = 205379 125000


---------------------------------------------------------------------
      Device Time Info (average): 
---------------------------------------------------------------------
Data Transfer:   27.4069 s.
Neighbor copy:   4.7138 s.
Neighbor build:  21.0288 s.
Force calc:      481.4955 s.
Device Overhead: 5.6000 s.
CPU Neighbor:    16.1656 s.
CPU Cast/Pack:   110.3957 s.
CPU Driver_Time: 5.0287 s.
CPU Idle_Time:   2.0208 s.
Average split:   1.0000.
Max Mem / Proc:  139.75 MB.
Prefetch mode:   None.
Vector width:    32.
Lanes / atom:    8.
Pair block:      256.
Neigh block:     128.
Neigh mode:      Hybrid (binning on host) with subgroup support
---------------------------------------------------------------------


--------------------------------------------------------------------------
- Using acceleration for lj/cut/tip4p/long/gpu:
-  with 1 proc(s) per device.
-  with 10 thread(s) per proc.
-  Horizontal vector operations: ENABLED
-  Shared memory system: No
--------------------------------------------------------------------------
Device 0: Quadro RTX 6000, 72 CUs, 22/23 GB, 1.8 GHZ (Mixed Precision)
--------------------------------------------------------------------------

Initializing Device and compiling on process 0...Done.
Initializing Device 0 on core 0...Done.

Generated 0 of 3 mixed pair_coeff terms from geometric mixing rule
Setting up Verlet run ...
  Unit style    : real
  Current step  : 300010
  Time step     : 2
Per MPI rank memory allocation (min/avg/max) = 62.19 | 62.19 | 62.19 Mbytes
   Step          Temp          Press          Volume         PotEng         KinEng         TotEng        Density    
    300010   299.26551      834.30172      54524.224     -20944.379      3347.8774     -17596.501      1.0462773    
    301000   304.02945     -234.70666      54645.076     -20968.527      3401.1714     -17567.356      1.0439634    
    302000   308.49542     -786.58155      54490.948     -20998.878      3451.1322     -17547.745      1.0469162    
    303000   297.48022     -509.75489      54466.69      -20939.449      3327.9053     -17611.544      1.0473825    
    304000   304.53133     -496.58958      54137.427     -20989.763      3406.786      -17582.977      1.0537527    
    305000   298.70288     -769.66964      54420.26      -20918.691      3341.5832     -17577.107      1.0482761    
    306000   301.82388     -567.06826      54417.539     -20936.939      3376.4978     -17560.441      1.0483285    
    307000   304.52315      427.72492      54396.954     -20925.565      3406.6945     -17518.87       1.0487252    
    308000   304.12739     -423.00852      54580.353     -20942.858      3402.2671     -17540.591      1.0452013    
    309000   299.23084     -491.88791      54314.692     -20874.901      3347.4894     -17527.411      1.0503136    
    310000   301.54865     -692.57595      54615.192     -20954.63       3373.4187     -17581.211      1.0445346    
    311000   299.67607      293.90549      54538.372     -21050.07       3352.4702     -17697.6        1.0460059    
    312000   303.37747      670.33118      54522.58      -20988.175      3393.8777     -17594.298      1.0463088    
    313000   295.92348     -288.943        54082.081     -20955.72       3310.4901     -17645.23       1.054831     
    314000   298.4476      -713.84488      54685.07      -20960.236      3338.7273     -17621.509      1.0431999    
    315000   305.39664     -490.74481      54669.931     -20932.874      3416.4661     -17516.408      1.0434887    
    316000   301.82931     -92.97567       54528.075     -20931.501      3376.5585     -17554.943      1.0462034    
    317000   295.56822      143.69918      54988.184     -20981.853      3306.5158     -17675.337      1.0374494    
    318000   296.27351      121.63475      54467.309     -20979.876      3314.4058     -17665.471      1.0473706    
    319000   309.22451      410.7952       54112.202     -20990.675      3459.2884     -17531.386      1.0542439    
    320000   293.05282      863.15372      54258.175     -20945.231      3278.3761     -17666.855      1.0514076    
    321000   292.26012      280.17176      54343.214     -20914.342      3269.5082     -17644.833      1.0497623    
    322000   291.3955       92.044002      54566.079     -21028.681      3259.8357     -17768.845      1.0454748    
    323000   300.02752     -1393.7084      54900.776     -21009.928      3356.4019     -17653.526      1.0391011    
    324000   298.43817     -54.130289      54212.791     -20953.325      3338.6219     -17614.703      1.0522878    
    325000   300.69666     -351.74615      53824.463     -20982.791      3363.8875     -17618.904      1.0598797    
    326000   305.28516     -183.47908      54285.471     -20897.112      3415.219      -17481.893      1.0508789    
    327000   301.61534     -354.35725      54873.574     -20921.352      3374.1648     -17547.187      1.0396162    
    328000   295.1981      -603.60488      54874.563     -20960.94       3302.3753     -17658.565      1.0395975    
    329000   303.22836     -396.31052      54845.97      -21014.263      3392.2097     -17622.054      1.0401395    
    330000   294.81787     -743.46346      54723.885     -20967.299      3298.1217     -17669.177      1.0424599    
    331000   299.4257      -498.46364      54835.284     -20838.893      3349.6693     -17489.224      1.0403422    
    332000   297.88061      636.92197      54658.308     -20862.973      3332.3845     -17530.589      1.0437106    
    333000   294.20074     -832.99119      54908.032     -20911.728      3291.2178     -17620.51       1.0389638    
    334000   298.38517      95.929273      54918.02      -20985.753      3338.029      -17647.724      1.0387748    
    335000   295.28214      762.96612      54416.785     -20949.316      3303.3155     -17646.001      1.048343     
    336000   302.03156     -115.98175      54418.179     -20993.31       3378.8211     -17614.489      1.0483162    
    337000   298.3278       140.54982      54395.872     -20930.934      3337.3871     -17593.547      1.0487461    
    338000   299.51036      88.181739      55004.32      -20873.933      3350.6165     -17523.317      1.037145     
    339000   298.22545      57.474981      54412.404     -20856.215      3336.2422     -17519.972      1.0484274    
    340000   300.20808      223.61772      54897.829     -20866.245      3358.4218     -17507.823      1.0391569    
    341000   296.91955     -480.83899      54569.513     -20965.889      3321.6331     -17644.256      1.045409     
    342000   296.46105      371.30383      54247.154     -20918.649      3316.5039     -17602.145      1.0516212    
    343000   300.36812      406.48773      54313.508     -20971.074      3360.2122     -17610.861      1.0503365    
    344000   309.20702      276.83432      54858.847     -21021.007      3459.0928     -17561.914      1.0398953    
    345000   304.05342     -544.01435      54651.929     -21090.569      3401.4396     -17689.129      1.0438325    
    346000   296.90436      117.82826      53871.598     -20882.01       3321.4631     -17560.547      1.0589524    
    347000   299.2898       364.32757      54228.001     -20970.391      3348.149      -17622.242      1.0519926    
    348000   299.53486      438.03347      54075.924     -21009.298      3350.8906     -17658.407      1.0549511    
    349000   304.31052      195.65215      54503.255     -20856.8        3404.3157     -17452.484      1.0466798    
    350000   302.1942       533.62079      54583.301     -20957.554      3380.6405     -17576.913      1.0451449    
    351000   303.47227      1216.2292      53787.688     -21035.72       3394.9382     -17640.782      1.0606044    
    352000   295.80746     -544.2713       54811.757     -21030.874      3309.1921     -17721.681      1.0407887    
    353000   301.70729     -451.31316      55232.315     -20969.096      3375.1935     -17593.903      1.0328638    
    354000   306.5602      -155.7618       54588.288     -20999.112      3429.4829     -17569.629      1.0450494    
    355000   300.80871     -254.17899      54648.093     -20981.997      3365.1411     -17616.856      1.0439057    
    356000   296.71458      703.47618      54455.701     -20997.501      3319.3401     -17678.161      1.0475939    
    357000   295.57921     -98.202467      54846.524     -21016.775      3306.6388     -17710.136      1.0401289    
    358000   299.93477      330.05792      54407.965     -21059.849      3355.3643     -17704.484      1.048513     
    359000   302.71875      168.94898      54588.059     -21008.896      3386.5086     -17622.387      1.0450538    
    360000   295.4353      -568.4657       54428.518     -21048.176      3305.0288     -17743.148      1.0481171    
    361000   296.07595      118.38949      54533.866     -21075.505      3312.1958     -17763.309      1.0460923    
    362000   303.0247       110.62188      54019.918     -21009.451      3389.9313     -17619.52       1.0560449    
    363000   291.4161       527.49701      54722.445     -20957.836      3260.0661     -17697.77       1.0424874    
    364000   305.01162     -219.74905      54542.457     -21053.073      3412.1589     -17640.914      1.0459275    
    365000   301.01376     -693.22818      54612.827     -20981.791      3367.435      -17614.356      1.0445798    
    366000   292.80032      560.90668      54563.352     -20979.016      3275.5513     -17703.465      1.045527     
    367000   298.74275     -248.27627      54601.5       -21035.655      3342.0292     -17693.626      1.0447965    
    368000   296.81438     -415.78911      54269.153     -20968.634      3320.4565     -17648.178      1.0511949    
    369000   304.5525      -463.70555      54612.272     -20804.187      3407.0228     -17397.165      1.0445905    
    370000   305.60832     -29.327439      54751.519     -20886.637      3418.8342     -17467.803      1.0419338    
    371000   295.35849     -86.370341      54441.553     -20779.099      3304.1695     -17474.929      1.0478661    
    372000   299.83911      232.15893      54511.133     -21005.53       3354.2942     -17651.236      1.0465286    
    373000   302.58407     -754.95653      54441.972     -21033.946      3385.002      -17648.944      1.047858     
    374000   302.60284     -89.009313      55003.118     -20793.303      3385.212      -17408.091      1.0371677    
    375000   297.6612       403.03942      53911.877     -20942.922      3329.93       -17612.992      1.0581612    
    376000   293.87295      331.89166      54173.14      -20879.297      3287.5508     -17591.746      1.053058     
    377000   295.48743     -45.216609      54710.542     -20901.915      3305.612      -17596.303      1.0427142    
    378000   307.29227      1006.8883      53892.995     -20943.382      3437.6725     -17505.71       1.058532     
    379000   302.345       -10.504897      54585.78      -21001.27       3382.3275     -17618.943      1.0450974    
    380000   293.6691       677.89643      54106.73      -20930.362      3285.2703     -17645.092      1.0543505    
[...]
   2495000   295.29793     -23.680821      54585.077     -21055.754      3303.4921     -17752.261      1.0451109    
   2496000   301.55285      709.03058      54751.52      -21017.472      3373.4657     -17644.006      1.0419338    
   2497000   307.21271      562.57058      54158.892     -20992.025      3436.7825     -17555.243      1.053335     
   2498000   312.44471      97.532206      54665.811     -20973.638      3495.3128     -17478.325      1.0435674    
   2499000   298.078       -376.72208      54008.566     -20870.642      3334.5927     -17536.049      1.0562669    
   2500000   300.48247      123.59217      54455.186     -20942.157      3361.4914     -17580.666      1.0476038    
   2501000   302.59727      40.615093      54165.741     -20964.37       3385.1497     -17579.22       1.0532018    
   2502000   302.65576     -732.58045      54977.646     -20861.579      3385.804      -17475.775      1.0376482    
   2503000   305.12631      603.87465      54296.221     -21021.791      3413.442      -17608.349      1.0506709    
   2504000   295.15789     -139.78624      54469.691     -21007.574      3301.9254     -17705.648      1.0473248    
   2505000   305.71283      364.58344      54938.391     -20864.673      3420.0034     -17444.67       1.0383897    
   2506000   294.65457      865.71728      54310.011     -21051.015      3296.2948     -17754.72       1.0504041    
   2507000   295.57616     -440.41837      54304.99      -21020.49       3306.6046     -17713.886      1.0505012    
   2508000   297.54773     -121.61775      54590.295     -20889.056      3328.6606     -17560.396      1.045011     
   2509000   299.37716      249.43079      54208.466     -21008.481      3349.1263     -17659.354      1.0523717    
   2510000   293.21773      45.92712       54635.575     -20889.818      3280.221      -17609.597      1.0441449    
   2511000   298.50487      506.22982      54309.344     -20950.771      3339.3681     -17611.403      1.050417     
   2512000   292.17229      533.16638      54317.696     -20933.115      3268.5256     -17664.589      1.0502555    
   2513000   301.12044     -27.187625      54756.5       -20895.933      3368.6284     -17527.305      1.041839     
   2514000   298.56955      701.64633      54534.651     -21103.628      3340.0916     -17763.536      1.0460772    
   2515000   312.36693     -698.71845      54859.198     -20854.485      3494.4426     -17360.043      1.0398887    
   2516000   296.29186      575.74301      54763.716     -20820.118      3314.6111     -17505.507      1.0417017    
   2517000   306.25251      945.93968      54477.314     -20929.123      3426.0408     -17503.082      1.0471782    
   2518000   298.29171     -287.26835      54814.518     -20967.151      3336.9834     -17630.168      1.0407363    
   2519000   293.6658      -1052.9845      54880.494     -20994.351      3285.2334     -17709.118      1.0394851    
   2520000   300.93194      122.09601      54737.36      -20891.272      3366.5196     -17524.752      1.0422033    
   2521000   295.87475     -219.9204       54583.052     -20983.283      3309.9449     -17673.339      1.0451496    
   2522000   297.57935      95.205196      54724.074     -20925.972      3329.0143     -17596.958      1.0424563    
   2523000   304.35393     -599.43894      54638.496     -21012.13       3404.8014     -17607.328      1.0440891    
   2524000   299.55366     -547.78405      54718.954     -20972.416      3351.1009     -17621.315      1.0425539    
   2525000   295.22515      573.08828      54481.732     -20969.676      3302.6778     -17666.998      1.0470933    
   2526000   298.542       -18.789079      54814.621     -20972.695      3339.7834     -17632.912      1.0407343    
   2527000   299.05458      635.53896      55028.562     -20848.975      3345.5176     -17503.458      1.0366881    
   2528000   305.4182       273.38531      54543.462     -20800.228      3416.7073     -17383.52       1.0459083    
   2529000   296.10612      173.83641      54238.697     -21032.236      3312.5333     -17719.703      1.0517852    
   2530000   299.81789     -134.0008       54568.481     -20873.157      3354.0567     -17519.1        1.0454287    
   2531000   300.68243      407.43855      54610.904     -20944.459      3363.7284     -17580.731      1.0446166    
   2532000   299.95219     -91.330148      53916.455     -20948.684      3355.5592     -17593.124      1.0580714    
   2533000   298.15488      845.54843      54159.777     -20944.116      3335.4528     -17608.663      1.0533178    
   2534000   298.34616      220.67211      54318.671     -20933.653      3337.5926     -17596.061      1.0502366    
   2535000   300.28438      36.476876      54848.877     -20999.792      3359.2754     -17640.517      1.0400843    
   2536000   303.43377     -256.8329       54823.319     -21034.8        3394.5076     -17640.293      1.0405692    
   2537000   297.96688     -933.87989      54369.912     -20962.06       3333.3495     -17628.71       1.0492468    
   2538000   304.51241     -533.01193      54710.414     -20980.925      3406.5743     -17574.351      1.0427166    
   2539000   301.20865      310.98759      55034.322     -20938.495      3369.6152     -17568.88       1.0365796    
   2540000   305.39186     -727.71465      55232.543     -20993.141      3416.4126     -17576.728      1.0328595    
   2541000   294.40156     -779.45303      54973.79      -21039.209      3293.4644     -17745.745      1.037721     
   2542000   295.96124     -40.536315      54067.774     -20970.956      3310.9125     -17660.043      1.0551102    
   2543000   300.39473     -676.90964      54480.274     -21074.891      3360.5099     -17714.381      1.0471213    
   2544000   297.78381      36.938604      54702.988     -20932.264      3331.3016     -17600.962      1.0428582    
   2545000   300.01463     -852.11589      54538.194     -20901.69       3356.2576     -17545.432      1.0460093    
   2546000   299.53201     -460.59756      54456.095     -20942.663      3350.8586     -17591.804      1.0475863    
   2547000   297.44088     -527.77318      54311.69      -20888.355      3327.4652     -17560.89       1.0503716    
   2548000   299.53456     -78.664462      54602.246     -20992.509      3350.8872     -17641.622      1.0447823    
   2549000   299.02497      134.42819      54697.802     -20953.797      3345.1864     -17608.611      1.042957     
   2550000   297.75635     -361.08985      54501.095     -20903.867      3330.9944     -17572.873      1.0467213    
   2551000   308.47791      483.75605      54694.832     -21002.604      3450.9363     -17551.668      1.0430137    
   2552000   305.24723      601.40073      54425.308     -21035.086      3414.7947     -17620.291      1.0481789    
   2553000   294.70876      668.14346      54184.802     -20854.496      3296.9011     -17557.595      1.0528313    
   2554000   291.77257     -808.94278      54410.552     -20932.297      3264.054      -17668.243      1.0484631    
   2555000   307.55585      517.43077      54213.622     -20854.031      3440.6212     -17413.41       1.0522716    
   2556000   296.18898      286.8364       54583.423     -21125.247      3313.4603     -17811.787      1.0451425    
   2557000   300.19654     -182.29495      54554.049     -20887.831      3358.2928     -17529.538      1.0457053    
   2558000   297.66255      556.35561      54706.112     -20966.424      3329.9451     -17636.479      1.0427986    
   2559000   302.86452     -690.31358      54592.883     -21026.84       3388.1394     -17638.7        1.0449614    
   2560000   297.73492      371.90828      54419.704     -20818.347      3330.7546     -17487.593      1.0482868    
   2561000   300.27212     -300.67963      54631.171     -21007.499      3359.1383     -17648.361      1.0442291    
   2562000   302.50361     -617.84021      54458.147     -21009.544      3384.1019     -17625.442      1.0475468    
   2563000   303.71398     -1260.167       54887.491     -20814.179      3397.6422     -17416.537      1.0393526    
   2564000   300.25334     -34.430693      54341.043     -20844.076      3358.9281     -17485.148      1.0498043    
   2565000   305.71636     -615.44735      54428.808     -20917.986      3420.0428     -17497.943      1.0481115    
   2566000   294.3701      -258.48194      54759.246     -20984.98       3293.1125     -17691.867      1.0417868    
   2567000   305.69055      645.91596      54244.858     -21066.148      3419.7542     -17646.394      1.0516657    
   2568000   302.56084      296.78394      54309.211     -20801.933      3384.7421     -17417.191      1.0504196    
   2569000   301.41981      453.15636      54899.35      -20809.416      3371.9774     -17437.439      1.0391281    
   2570000   298.2165      -893.12859      54706.76      -21068.272      3336.142      -17732.13       1.0427863    
   2571000   303.11246      387.10619      54276.775     -21149.008      3390.913      -17758.095      1.0510473    
   2572000   293.35386      341.91291      54898.649     -20983.337      3281.7439     -17701.593      1.0391414    
   2573000   299.80461      641.4982       54607.623     -20860.103      3353.9082     -17506.195      1.0446794    
   2574000   297.9996      -62.641286      54635.178     -20946.359      3333.7156     -17612.644      1.0441525    
   2575000   304.0252       188.47311      54446.076     -21041.56       3401.1239     -17640.436      1.0477791    
   2576000   291.23599      451.59561      53997.222     -20966.52       3258.0512     -17708.468      1.0564888    
   2577000   300.03439      566.29047      54542.128     -20973.607      3356.4787     -17617.128      1.0459338    
   2578000   302.20031      771.28985      54651.552     -20951.579      3380.7089     -17570.87       1.0438397    
   2579000   308.01237     -386.11846      54414.738     -20976.752      3445.7282     -17531.024      1.0483825    
   2580000   296.34754      841.58587      54048.012     -20975.347      3315.234      -17660.113      1.055496     
   2581000   304.69054      144.95507      54574.053     -20987.992      3408.567      -17579.425      1.045322     
   2582000   298.73728      317.50922      54601.272     -20983.639      3341.968      -17641.671      1.0448009    
   2583000   303.89383      505.28532      54804.802     -20955.653      3399.6543     -17555.998      1.0409208    
   2584000   292.58315     -341.45112      54973.301     -20934.257      3273.1219     -17661.135      1.0377302    
   2585000   300.13482     -1288.1623      54938.084     -21027.101      3357.6023     -17669.499      1.0383955    
   2586000   303.16469     -322.63618      54944.152     -20916.062      3391.4973     -17524.565      1.0382808    
   2587000   296.08752      269.90219      54823.699     -20956.938      3312.3252     -17644.613      1.040562     
   2588000   308.43147      482.37845      55094.835     -21006.351      3450.4168     -17555.934      1.0354411    
   2589000   300.80742     -105.41965      54598.168     -21149.038      3365.1267     -17783.911      1.0448603    
   2590000   296.7161      -87.548774      54797.758     -20945.563      3319.3571     -17626.206      1.0410546    
   2591000   300.34153      187.58138      54478.221     -20989.393      3359.9148     -17629.479      1.0471608    
   2592000   294.28267      197.74411      53959.775     -20800.836      3292.1344     -17508.702      1.0572219    
   2593000   307.56051      464.6743       54100.431     -21025.37       3440.6733     -17584.697      1.0544733    
   2594000   293.8545      -24.612485      54544.413     -20988.498      3287.3444     -17701.154      1.04589      
   2595000   297.30176      171.1166       54260.231     -21004.24       3325.9089     -17678.331      1.0513678    
   2596000   297.19836     -709.52777      54586.566     -20801.208      3324.7522     -17476.456      1.0450824    
   2597000   300.27197      171.09234      54192.105     -20963.635      3359.1365     -17604.498      1.0526895    
   2598000   302.37455     -111.60508      54117.446     -20970.005      3382.6581     -17587.347      1.0541417    
   2599000   302.51497      456.8001       54269.967     -20827.104      3384.229      -17442.875      1.0511791    
   2600000   300.85465     -96.108382      54624.836     -20899.607      3365.655      -17533.952      1.0443502    
   2600010   307.02164     -63.874233      54583.691     -20960.147      3434.645      -17525.502      1.0451374    
Loop time of 79677 on 10 procs for 2000000 steps with 5541 atoms

Performance: 4.338 ns/day, 5.533 hours/ns, 25.101 timesteps/s, 139.087 katom-step/s
736.4% CPU use with 1 MPI tasks x 10 OpenMP threads

MPI task timing breakdown:
Section |  min time  |  avg time  |  max time  |%varavg| %total
---------------------------------------------------------------
Pair    | 2564.1     | 2564.1     | 2564.1     |   0.0 |  3.22
Bond    | 23.378     | 23.378     | 23.378     |   0.0 |  0.03
Kspace  | 46852      | 46852      | 46852      |   0.0 | 58.80
Neigh   | 69.164     | 69.164     | 69.164     |   0.0 |  0.09
Comm    | 899.63     | 899.63     | 899.63     |   0.0 |  1.13
Output  | 32.576     | 32.576     | 32.576     |   0.0 |  0.04
Modify  | 28881      | 28881      | 28881      |   0.0 | 36.25
Other   |            | 354.7      |            |       |  0.45

Nlocal:           5541 ave        5541 max        5541 min
Histogram: 1 0 0 0 0 0 0 0 0 0
Nghost:          35543 ave       35543 max       35543 min
Histogram: 1 0 0 0 0 0 0 0 0 0
Neighs:    4.72348e+06 ave 4.72348e+06 max 4.72348e+06 min
Histogram: 1 0 0 0 0 0 0 0 0 0

Total # of neighbors = 4723483
Ave neighs/atom = 852.46039
Ave special neighs/atom = 2.4872767
Neighbor list builds = 186445
Dangerous builds = 0

===== Saving Final Configuration =====
System init for write_data ...
PPPM initialization ...
  extracting TIP4P info from pair style
  using 12-bit tables for long-range coulomb
  G vector (1/distance) = 0.28822409
  grid = 50 50 50
  stencil order = 5
  estimated absolute RMS force accuracy = 0.00033155946
  estimated relative force accuracy = 9.9848146e-07
  using double precision FFTW3
  3d grid and FFT values/proc = 205379 125000


---------------------------------------------------------------------
      Device Time Info (average): 
---------------------------------------------------------------------
Data Transfer:   276.0960 s.
Neighbor copy:   46.9201 s.
Neighbor build:  240.3641 s.
Force calc:      5252.5631 s.
Device Overhead: 56.2560 s.
CPU Neighbor:    161.1957 s.
CPU Cast/Pack:   1107.5232 s.
CPU Driver_Time: 50.4490 s.
CPU Idle_Time:   20.0050 s.
Average split:   1.0000.
Max Mem / Proc:  139.74 MB.
Prefetch mode:   None.
Vector width:    32.
Lanes / atom:    8.
Pair block:      256.
Neigh block:     128.
Neigh mode:      Hybrid (binning on host) with subgroup support
---------------------------------------------------------------------


--------------------------------------------------------------------------
- Using acceleration for lj/cut/tip4p/long/gpu:
-  with 1 proc(s) per device.
-  with 10 thread(s) per proc.
-  Horizontal vector operations: ENABLED
-  Shared memory system: No
--------------------------------------------------------------------------
Device 0: Quadro RTX 6000, 72 CUs, 23/23 GB, 1.8 GHZ (Mixed Precision)
--------------------------------------------------------------------------

Initializing Device and compiling on process 0...Done.
Initializing Device 0 on core 0...Done.

Generated 0 of 3 mixed pair_coeff terms from geometric mixing rule
WARNING: Not all mixed pair coeffs generated from mixing. Use write_data with 'pair ij' option to store all pair coeffs. (src/write_data.cpp:364)
System init for write_restart ...
PPPM initialization ...
  extracting TIP4P info from pair style
  using 12-bit tables for long-range coulomb
  G vector (1/distance) = 0.28822409
  grid = 50 50 50
  stencil order = 5
  estimated absolute RMS force accuracy = 0.00033155946
  estimated relative force accuracy = 9.9848146e-07
  using double precision FFTW3
  3d grid and FFT values/proc = 205379 125000

--------------------------------------------------------------------------
- Using acceleration for lj/cut/tip4p/long/gpu:
-  with 1 proc(s) per device.
-  with 10 thread(s) per proc.
-  Horizontal vector operations: ENABLED
-  Shared memory system: No
--------------------------------------------------------------------------
Device 0: Quadro RTX 6000, 72 CUs, 23/23 GB, 1.8 GHZ (Mixed Precision)
--------------------------------------------------------------------------

Initializing Device and compiling on process 0...Done.
Initializing Device 0 on core 0...Done.

Generated 0 of 3 mixed pair_coeff terms from geometric mixing rule

ïêïêïêïêïêïêïêïêïêïêïêïêïêïêïêïêïêïêïêïêïêïêïêïêïêïêïêïêïêïêïêïêïêïêïêïêïêïêïêïêïêïêïêïêïêïêïêïêïêïêïêïêïêïêïêïêïêïêïêïêïêïêïêïêïêïêïêïêïêïêïêïêïêïêïêïê
                     EQUILIBRATION COMPLETE - SUCCESS!
ïêïêïêïêïêïêïêïêïêïêïêïêïêïêïêïêïêïêïêïêïêïêïêïêïêïêïêïêïêïêïêïêïêïêïêïêïêïêïêïêïêïêïêïêïêïêïêïêïêïêïêïêïêïêïêïêïêïêïêïêïêïêïêïêïêïêïêïêïêïêïêïêïêïêïêïê

Simulation Summary:
  Total simulation time: 5.22 ns
    - NVT thermalization:     50 ps
    - Pre-equilibration:      50 ps  (NEW - prevents PPPM artifacts)
    - Pressure ramp:         100 ps  (EXTENDED and with drag damping)
    - NPT equilibration:    1000 ps
    - Production run:       4000 ps (4 ns)

Final Thermodynamic State:
  Temperature:    307.021642440324 K      (target: 300K)
  Pressure:       -63.874232990528 atm   (target: 1 atm)
  Density:        1.04513740946562 g/cm≥  (target: 0.95-1.05)
  Volume:         54583.6911965148 Ö≥
  Box size:       37.9333298182735 Ö    (expected: 58-63)

Final Energies:
  Potential:      -20960.1473994066 kcal/mol
  Kinetic:        3434.64500966815 kcal/mol
  Total:          -17525.5023897384 kcal/mol

ERROR: Input line quote not followed by white-space (src/input.cpp:556)
Last input line: if "${final_dens} >= 0.85 && ${final_dens} <= 1.15" then "print '‚úÖ SUCCESS: System equilibrated to LIQUID PHASE!'" "print ''" "print 'Quality Indicators:'" "if '${final_dens} >= 0.95 && ${final_dens} <= 1.05' then 'print \" ‚úì Density: EXCELLENT (within 5% of water)\"' else 'print \" ‚ö† Density: ACCEPTABLE (but check TIP4P/2005 reference)\"'" "if '${final_press} >= -50.0 && ${final_press} <= 50.0' then 'print \" ‚úì Pressure: EXCELLENT (normal fluctuations)\"' else 'print \" ‚ö† Pressure: CHECK (may need longer equilibration)\"'" "if '${final_temp} >= 295.0 && ${final_temp} <= 305.0' then 'print \" ‚úì Temperature: EXCELLENT\"' else 'print \" ‚ö† Temperature: CHECK (thermostat may need tuning)\"'" else "print '‚ö†Ô∏è WARNING: Density ${final_dens} g/cm¬≥ outside normal range'" "print 'Expected: 0.95-1.05 g/cm¬≥ for TIP4P/2005 water at 300K, 1 atm'" "print ''" "print 'Possible explanations:'" "print ' - System still equilibrating (try longer NPT)'" "print ' - Force field parameters incorrect'" "print ' - Nanoparticle affecting bulk water density'"
Cuda driver error 4 in call at file '/home/iiserk/sbs/solvent/mylammps_v2/lib/gpu/geryon/nvd_timer.h' in line 98.
Cuda driver error 4 in call at file '/home/iiserk/sbs/solvent/mylammps_v2/lib/gpu/geryon/nvd_timer.h' in line 99.
Cuda driver error 4 in call at file '/home/iiserk/sbs/solvent/mylammps_v2/lib/gpu/geryon/nvd_timer.h' in line 98.
Cuda driver error 4 in call at file '/home/iiserk/sbs/solvent/mylammps_v2/lib/gpu/geryon/nvd_timer.h' in line 99.
Cuda driver error 4 in call at file '/home/iiserk/sbs/solvent/mylammps_v2/lib/gpu/geryon/nvd_timer.h' in line 98.
Cuda driver error 4 in call at file '/home/iiserk/sbs/solvent/mylammps_v2/lib/gpu/geryon/nvd_timer.h' in line 99.
Cuda driver error 4 in call at file '/home/iiserk/sbs/solvent/mylammps_v2/lib/gpu/geryon/nvd_timer.h' in line 98.
Cuda driver error 4 in call at file '/home/iiserk/sbs/solvent/mylammps_v2/lib/gpu/geryon/nvd_timer.h' in line 99.
