LAMMPS (10 Sep 2025)
  using 10 OpenMP thread(s) per MPI task
Reading data file ...
  orthogonal box = (-20 -20 -20) to (20 20 20)
  1 by 1 by 1 MPI processor grid
  reading atoms ...
  5541 atoms
  reading velocities ...
  5541 velocities
  scanning bonds ...
  3 = max bonds/atom
  scanning angles ...
  1 = max angles/atom
  orthogonal box = (-20 -20 -20) to (20 20 20)
  1 by 1 by 1 MPI processor grid
  reading bonds ...
  3844 bonds
  reading angles ...
  1787 angles
Finding 1-2 1-3 1-4 neighbors ...
  special bond factors lj:    0        0        0       
  special bond factors coul:  0        0        0       
     3 = max # of 1-2 neighbors
     6 = max # of 1-3 neighbors
    18 = max # of 1-4 neighbors
    17 = max # of special neighbors
  special bonds CPU = 0.002 seconds
  read_data CPU = 0.102 seconds
180 atoms in group carbon
5361 atoms in group water
1787 atoms in group oxygen
3574 atoms in group hydrogen
WARNING: Detected non-ASCII characters in input. Will try to continue by replacing with ASCII equivalents where known. (src/input.cpp:479)
ïêïêïêïêïêïêïêïêïêïêïêïêïêïêïêïêïêïêïêïêïêïêïêïêïêïêïêïêïêïêïêïêïêïêïêïêïêïêïêïêïêïêïêïêïêïêïêïêïêïêïêïêïêïêïêïêïêïêïêïêïêïêïêïêïêïêïêïêïêïêïêïêïêïêïêïê
SYSTEM INFORMATION:
  Epsilon (O-C): 0.3 kcal/mol
  Random seed:   42
  Timestep:      2.0 fs (with SHAKE constraints)
  PPPM grid:     40ó40ó40 (LOCKED to prevent artifacts)
ïêïêïêïêïêïêïêïêïêïêïêïêïêïêïêïêïêïêïêïêïêïêïêïêïêïêïêïêïêïêïêïêïêïêïêïêïêïêïêïêïêïêïêïêïêïêïêïêïêïêïêïêïêïêïêïêïêïêïêïêïêïêïêïêïêïêïêïêïêïêïêïêïêïêïêïê

===== STAGE 0: Gentle Minimization (removing any overlaps) =====
Using CPU pair style for numerical stability during minimization


CITE-CITE-CITE-CITE-CITE-CITE-CITE-CITE-CITE-CITE-CITE-CITE-CITE

Your simulation uses code contributions which should be cited:
- GPU package (short-range, long-range and three-body potentials): doi:10.1016/j.cpc.2010.12.021, doi:10.1016/j.cpc.2011.10.012, doi:10.1016/j.cpc.2013.08.002, doi:10.1016/j.commatsci.2014.10.068, doi:10.1016/j.cpc.2016.10.020, doi:10.3233/APC200086
The log file lists these citations in BibTeX format.

CITE-CITE-CITE-CITE-CITE-CITE-CITE-CITE-CITE-CITE-CITE-CITE-CITE

Switching to 'neigh_modify every 1 delay 0 check yes' setting during minimization
PPPM initialization ...
  extracting TIP4P info from pair style
  using 12-bit tables for long-range coulomb
  G vector (1/distance) = 0.28512662
  grid = 50 50 50
  stencil order = 5
  estimated absolute RMS force accuracy = 0.00038934319
  estimated relative force accuracy = 1.1724955e-06
  using double precision FFTW3
  3d grid and FFT values/proc = 185193 125000

--------------------------------------------------------------------------
- Using acceleration for lj/cut/tip4p/long/gpu:
-  with 1 proc(s) per device.
-  with 10 thread(s) per proc.
-  Horizontal vector operations: ENABLED
-  Shared memory system: No
--------------------------------------------------------------------------
Device 0: Quadro RTX 6000, 72 CUs, 23/23 GB, 1.8 GHZ (Mixed Precision)
--------------------------------------------------------------------------

Initializing Device and compiling on process 0...Done.
Initializing Device 0 on core 0...Done.

Generated 0 of 3 mixed pair_coeff terms from geometric mixing rule
Setting up cg style minimization ...
  Unit style    : real
  Current step  : 0
Per MPI rank memory allocation (min/avg/max) = 59.33 | 59.33 | 59.33 Mbytes
   Step          Temp          Press          Volume         PotEng         KinEng         TotEng        Density    
         0   36.495381      27235.273      64000         -23227.447      602.67332     -22624.773      0.89136653   
        10   36.495381     -19472.666      64000         -142263.64      602.67332     -141660.96      0.89136653   
Loop time of 0.1312 on 10 procs for 10 steps with 5541 atoms

995.5% CPU use with 1 MPI tasks x 10 OpenMP threads

Minimization stats:
  Stopping criterion = max iterations
  Energy initial, next-to-last, final = 
     -23227.4467097864  -124504.257628863  -142263.637884325
  Force two-norm initial, final = 2152.6555 6846.345
  Force max component initial, final = 49.701014 358.51189
  Final line search alpha, max atom move = 0.00038708635 0.13877506
  Iterations, force evaluations = 10 10

MPI task timing breakdown:
Section |  min time  |  avg time  |  max time  |%varavg| %total
---------------------------------------------------------------
Pair    | 0.0022054  | 0.0022054  | 0.0022054  |   0.0 |  1.68
Bond    | 0.0016292  | 0.0016292  | 0.0016292  |   0.0 |  1.24
Kspace  | 0.12281    | 0.12281    | 0.12281    |   0.0 | 93.61
Neigh   | 0          | 0          | 0          |   0.0 |  0.00
Comm    | 0.0020476  | 0.0020476  | 0.0020476  |   0.0 |  1.56
Output  | 7.0278e-05 | 7.0278e-05 | 7.0278e-05 |   0.0 |  0.05
Modify  | 6.18e-07   | 6.18e-07   | 6.18e-07   |   0.0 |  0.00
Other   |            | 0.002436   |            |       |  1.86

Nlocal:           5541 ave        5541 max        5541 min
Histogram: 1 0 0 0 0 0 0 0 0 0
Nghost:          33839 ave       33839 max       33839 min
Histogram: 1 0 0 0 0 0 0 0 0 0
Neighs:              0 ave           0 max           0 min
Histogram: 1 0 0 0 0 0 0 0 0 0

Total # of neighbors = 0
Ave neighs/atom = 0
Ave special neighs/atom = 2.4872767
Neighbor list builds = 0
Dangerous builds = 0
Minimization complete. PE = -142263.637884325 kcal/mol (was -23,217)

Applying SHAKE constraints...
Finding SHAKE clusters ...
       0 = # of size 2 clusters
       0 = # of size 3 clusters
       0 = # of size 4 clusters
    1787 = # of frozen angles
  find clusters CPU = 0.001 seconds
SHAKE constraint verification:
  Expected: ~2000 water molecules with constrained bonds and angles
  Check minimization output for cluster sizes

GPU Acceleration Status:
  úì Pair forces (LJ):      GPU (lj/cut/tip4p/long/gpu)
  úì Coulomb (PPPM):        CPU (pppm/tip4p) - GPU suffix not available
  úì Neighbor lists:        GPU (neigh yes)
  Üí Expected speedup:      2-3ó vs CPU-only version (pair forces only)

===== STAGE 1: NVT Thermalization (50 ps, GPU) =====
Objective: Reach 300K while maintaining initial density
PPPM initialization ...
  extracting TIP4P info from pair style
  using 12-bit tables for long-range coulomb
  G vector (1/distance) = 0.28512662
  grid = 50 50 50
  stencil order = 5
  estimated absolute RMS force accuracy = 0.00038934319
  estimated relative force accuracy = 1.1724955e-06
  using double precision FFTW3
  3d grid and FFT values/proc = 185193 125000


---------------------------------------------------------------------
      Device Time Info (average): 
---------------------------------------------------------------------
Data Transfer:   0.0012 s.
Neighbor copy:   0.0003 s.
Neighbor build:  0.0009 s.
Force calc:      0.0152 s.
Device Overhead: 0.0004 s.
CPU Neighbor:    0.0010 s.
CPU Cast/Pack:   0.0010 s.
CPU Driver_Time: 0.0003 s.
CPU Idle_Time:   0.0001 s.
Average split:   1.0000.
Max Mem / Proc:  98.37 MB.
Prefetch mode:   None.
Vector width:    32.
Lanes / atom:    8.
Pair block:      256.
Neigh block:     128.
Neigh mode:      Hybrid (binning on host) with subgroup support
---------------------------------------------------------------------


--------------------------------------------------------------------------
- Using acceleration for lj/cut/tip4p/long/gpu:
-  with 1 proc(s) per device.
-  with 10 thread(s) per proc.
-  Horizontal vector operations: ENABLED
-  Shared memory system: No
--------------------------------------------------------------------------
Device 0: Quadro RTX 6000, 72 CUs, 23/23 GB, 1.8 GHZ (Mixed Precision)
--------------------------------------------------------------------------

Initializing Device and compiling on process 0...Done.
Initializing Device 0 on core 0...Done.

Generated 0 of 3 mixed pair_coeff terms from geometric mixing rule
Setting up Verlet run ...
  Unit style    : real
  Current step  : 10
  Time step     : 2
Per MPI rank memory allocation (min/avg/max) = 58.79 | 58.79 | 58.79 Mbytes
   Step          Temp          Press          Volume         PotEng         KinEng         TotEng        Density    
        10   300           -112604.82      64000         -142263.64      3356.094      -138907.54      0.89136653   
      1000   299.08224     -1197.2809      64000         -19877.228      3345.827      -16531.401      0.89136653   
      2000   302.98362     -832.98795      64000         -20210.909      3389.4718     -16821.438      0.89136653   
      3000   296.07186     -425.47913      64000         -20244.954      3312.1501     -16932.804      0.89136653   
      4000   299.63364     -1429.2802      64000         -20095.991      3351.9955     -16743.996      0.89136653   
      5000   303.54951     -1263.7675      64000         -20224.138      3395.8024     -16828.335      0.89136653   
      6000   302.88244     -954.69745      64000         -20230.945      3388.3399     -16842.605      0.89136653   
      7000   298.52622     -905.0766       64000         -20278.994      3339.6069     -16939.388      0.89136653   
      8000   301.66602     -1299.485       64000         -20265.214      3374.7318     -16890.482      0.89136653   
      9000   298.48375     -1722.0448      64000         -20348.059      3339.1318     -17008.927      0.89136653   
     10000   299.01375     -467.21378      64000         -20267.101      3345.0608     -16922.041      0.89136653   
     11000   294.82526     -921.98287      64000         -20147.448      3298.2043     -16849.244      0.89136653   
     12000   297.86559     -1060.5602      64000         -20188.922      3332.2164     -16856.706      0.89136653   
     13000   299.30861     -836.66907      64000         -20270.173      3348.3595     -16921.814      0.89136653   
     14000   304.3523      -2221.4321      64000         -20393.458      3404.7832     -16988.675      0.89136653   
     15000   308.60609     -863.75944      64000         -20203.698      3452.3702     -16751.328      0.89136653   
     16000   296.8611      -1165.4664      64000         -20376.47       3320.9792     -17055.491      0.89136653   
     17000   298.46688     -1861.9331      64000         -20381.483      3338.943      -17042.54       0.89136653   
     18000   299.40997     -1604.6063      64000         -20418.771      3349.4933     -17069.278      0.89136653   
     19000   299.08116     -1083.2015      64000         -20368.492      3345.815      -17022.677      0.89136653   
     20000   311.49943     -938.22962      64000         -20375.506      3484.7379     -16890.768      0.89136653   
     21000   300.01456     -1467.9359      64000         -20291.223      3356.2569     -16934.967      0.89136653   
     22000   305.35281     -798.60933      64000         -20291.348      3415.9758     -16875.373      0.89136653   
     23000   304.1357      -839.18379      64000         -20231.374      3402.36       -16829.014      0.89136653   
     24000   293.13367     -956.82752      64000         -20302.727      3279.2805     -17023.447      0.89136653   
     25000   303.02023     -1272.3779      64000         -20228.949      3389.8813     -16839.068      0.89136653   
     25010   300.21131     -1450.1525      64000         -20202.338      3358.458      -16843.88       0.89136653   
Loop time of 499.144 on 10 procs for 25000 steps with 5541 atoms

Performance: 8.655 ns/day, 2.773 hours/ns, 50.086 timesteps/s, 277.525 katom-step/s
927.6% CPU use with 1 MPI tasks x 10 OpenMP threads

MPI task timing breakdown:
Section |  min time  |  avg time  |  max time  |%varavg| %total
---------------------------------------------------------------
Pair    | 21.03      | 21.03      | 21.03      |   0.0 |  4.21
Bond    | 0.18431    | 0.18431    | 0.18431    |   0.0 |  0.04
Kspace  | 446.04     | 446.04     | 446.04     |   0.0 | 89.36
Neigh   | 0.05467    | 0.05467    | 0.05467    |   0.0 |  0.01
Comm    | 9.2845     | 9.2845     | 9.2845     |   0.0 |  1.86
Output  | 0.11437    | 0.11437    | 0.11437    |   0.0 |  0.02
Modify  | 19.726     | 19.726     | 19.726     |   0.0 |  3.95
Other   |            | 2.712      |            |       |  0.54

Nlocal:           5541 ave        5541 max        5541 min
Histogram: 1 0 0 0 0 0 0 0 0 0
Nghost:          33122 ave       33122 max       33122 min
Histogram: 1 0 0 0 0 0 0 0 0 0
Neighs:              0 ave           0 max           0 min
Histogram: 1 0 0 0 0 0 0 0 0 0

Total # of neighbors = 0
Ave neighs/atom = 0
Ave special neighs/atom = 2.4872767
Neighbor list builds = 2329
Dangerous builds = 1
System init for write_restart ...
PPPM initialization ...
  extracting TIP4P info from pair style
  using 12-bit tables for long-range coulomb
  G vector (1/distance) = 0.28512662
  grid = 50 50 50
  stencil order = 5
  estimated absolute RMS force accuracy = 0.00038934319
  estimated relative force accuracy = 1.1724955e-06
  using double precision FFTW3
  3d grid and FFT values/proc = 185193 125000


---------------------------------------------------------------------
      Device Time Info (average): 
---------------------------------------------------------------------
Data Transfer:   2.6033 s.
Neighbor copy:   0.5816 s.
Neighbor build:  2.8999 s.
Force calc:      28.2636 s.
Device Overhead: 0.7005 s.
CPU Neighbor:    2.3454 s.
CPU Cast/Pack:   3.1640 s.
CPU Driver_Time: 0.6156 s.
CPU Idle_Time:   0.2731 s.
Average split:   1.0000.
Max Mem / Proc:  97.97 MB.
Prefetch mode:   None.
Vector width:    32.
Lanes / atom:    8.
Pair block:      256.
Neigh block:     128.
Neigh mode:      Hybrid (binning on host) with subgroup support
---------------------------------------------------------------------


--------------------------------------------------------------------------
- Using acceleration for lj/cut/tip4p/long/gpu:
-  with 1 proc(s) per device.
-  with 10 thread(s) per proc.
-  Horizontal vector operations: ENABLED
-  Shared memory system: No
--------------------------------------------------------------------------
Device 0: Quadro RTX 6000, 72 CUs, 22/23 GB, 1.8 GHZ (Mixed Precision)
--------------------------------------------------------------------------

Initializing Device and compiling on process 0...Done.
Initializing Device 0 on core 0...Done.

Generated 0 of 3 mixed pair_coeff terms from geometric mixing rule
NVT complete. Temperature: 300.211311019764 K (target: 300K)
úì Checkpoint 1 PASSED: Density = 0.891366525253082 g/cm≥

===== STAGE 1.5: Pre-Equilibration at 100 atm (50 ps, GPU) =====
üîß CRITICAL FIX: Reducing initial pressure before main ramp
Objective: Equilibrate volume at moderate pressure to prevent PPPM artifacts

Why this is needed:
  - NVT creates high pressure (~800 atm) in fixed volume
  - Direct ramp from 800Üí1 atm caused 169k atm spike (PPPM grid change)
  - Pre-equilibrating at 100 atm reduces initial pressure safely
  - Main ramp (100Üí1 atm) will then cause only ~5% box expansion
PPPM initialization ...
  extracting TIP4P info from pair style
  using 12-bit tables for long-range coulomb
  G vector (1/distance) = 0.28512662
  grid = 50 50 50
  stencil order = 5
  estimated absolute RMS force accuracy = 0.00038934319
  estimated relative force accuracy = 1.1724955e-06
  using double precision FFTW3
  3d grid and FFT values/proc = 185193 125000

--------------------------------------------------------------------------
- Using acceleration for lj/cut/tip4p/long/gpu:
-  with 1 proc(s) per device.
-  with 10 thread(s) per proc.
-  Horizontal vector operations: ENABLED
-  Shared memory system: No
--------------------------------------------------------------------------
Device 0: Quadro RTX 6000, 72 CUs, 22/23 GB, 1.8 GHZ (Mixed Precision)
--------------------------------------------------------------------------

Initializing Device and compiling on process 0...Done.
Initializing Device 0 on core 0...Done.

Generated 0 of 3 mixed pair_coeff terms from geometric mixing rule
Setting up Verlet run ...
  Unit style    : real
  Current step  : 25010
  Time step     : 2
Per MPI rank memory allocation (min/avg/max) = 58.79 | 58.79 | 58.79 Mbytes
   Step          Temp          Press          Volume         PotEng         KinEng         TotEng        Density    
     25010   300.21131     -1450.0837      64000         -20202.338      3358.458      -16843.88       0.89136653   
     26000   291.36847      97.703271      61244.844     -20435.055      3259.5333     -17175.522      0.93146547   
     27000   306.62394     -713.10505      59027.032     -20553.609      3430.196      -17123.413      0.96646326   
     28000   305.66636     -627.02578      57580.761     -20442.639      3419.4835     -17023.156      0.99073817   
     29000   302.9139      -259.07222      56394.586     -20530.404      3388.6918     -17141.712      1.0115769    
     30000   295.7823       626.80025      55520.093     -20650.844      3308.9107     -17341.933      1.0275101    
     31000   302.49346     -47.848271      55175.797     -20485.429      3383.9883     -17101.441      1.0339218    
     32000   307.19091      277.29731      54645.01      -20664.636      3436.5386     -17228.097      1.0439646    
     33000   300.58438     -196.08926      54628.647     -20656.084      3362.6314     -17293.453      1.0442773    
     34000   294.50337     -42.711921      54590.424     -20593.103      3294.6033     -17298.499      1.0450085    
     35000   304.86533      552.03172      54539.36      -20762.277      3410.5224     -17351.755      1.0459869    
     36000   292.0137       208.57318      54396.716     -20662.461      3266.7515     -17395.71       1.0487298    
     37000   306.84586      620.3211       54121.682     -20618.59       3432.6786     -17185.912      1.0540592    
     38000   300.28172      54.951319      54632.533     -20667.928      3359.2457     -17308.682      1.0442031    
     39000   298.97841      186.53904      54987.802     -20494.155      3344.6655     -17149.49       1.0374566    
     40000   299.54527      582.32636      54155.179     -20612.61       3351.007      -17261.603      1.0534072    
     41000   301.72637      353.33684      54220.927     -20631.099      3375.4069     -17255.692      1.0521299    
     42000   300.89168      241.4869       54623.985     -20632.964      3366.0692     -17266.894      1.0443665    
     43000   295.50187     -3.7766018      54576.47      -20570.609      3305.7735     -17264.836      1.0452757    
     44000   299.4899       330.3341       54346.322     -20697.919      3350.3876     -17347.532      1.0497023    
     45000   297.83877      532.91272      54582.754     -20664.883      3331.9164     -17332.967      1.0451553    
     46000   303.62391      235.5914       54539.438     -20742.625      3396.6347     -17345.99       1.0459854    
     47000   302.66476      2.5543893      54065.968     -20580.783      3385.9046     -17194.879      1.0551454    
     48000   303.40483      67.406765      54113.159     -20568.58       3394.1837     -17174.396      1.0542252    
     49000   303.12403     -905.34788      55250.819     -20661.606      3391.0424     -17270.564      1.0325179    
     50000   307.52792     -377.61941      54704.898     -20586.526      3440.3087     -17146.218      1.0428218    
     50010   300.91477      552.64171      54699.191     -20514.258      3366.3275     -17147.93       1.0429305    
Loop time of 980.734 on 10 procs for 25000 steps with 5541 atoms

Performance: 4.405 ns/day, 5.449 hours/ns, 25.491 timesteps/s, 141.246 katom-step/s
624.4% CPU use with 1 MPI tasks x 10 OpenMP threads

MPI task timing breakdown:
Section |  min time  |  avg time  |  max time  |%varavg| %total
---------------------------------------------------------------
Pair    | 21         | 21         | 21         |   0.0 |  2.14
Bond    | 0.31493    | 0.31493    | 0.31493    |   0.0 |  0.03
Kspace  | 438.96     | 438.96     | 438.96     |   0.0 | 44.76
Neigh   | 0.052199   | 0.052199   | 0.052199   |   0.0 |  0.01
Comm    | 10.099     | 10.099     | 10.099     |   0.0 |  1.03
Output  | 0.016249   | 0.016249   | 0.016249   |   0.0 |  0.00
Modify  | 506.01     | 506.01     | 506.01     |   0.0 | 51.59
Other   |            | 4.284      |            |       |  0.44

Nlocal:           5541 ave        5541 max        5541 min
Histogram: 1 0 0 0 0 0 0 0 0 0
Nghost:          35363 ave       35363 max       35363 min
Histogram: 1 0 0 0 0 0 0 0 0 0
Neighs:              0 ave           0 max           0 min
Histogram: 1 0 0 0 0 0 0 0 0 0

Total # of neighbors = 0
Ave neighs/atom = 0
Ave special neighs/atom = 2.4872767
Neighbor list builds = 2330
Dangerous builds = 0
System init for write_restart ...
PPPM initialization ...
  extracting TIP4P info from pair style
  using 12-bit tables for long-range coulomb
  G vector (1/distance) = 0.28818681
  grid = 50 50 50
  stencil order = 5
  estimated absolute RMS force accuracy = 0.00033222735
  estimated relative force accuracy = 1.0004928e-06
  using double precision FFTW3
  3d grid and FFT values/proc = 205379 125000


---------------------------------------------------------------------
      Device Time Info (average): 
---------------------------------------------------------------------
Data Transfer:   3.1837 s.
Neighbor copy:   0.5622 s.
Neighbor build:  2.3379 s.
Force calc:      60.2386 s.
Device Overhead: 0.7736 s.
CPU Neighbor:    2.0521 s.
CPU Cast/Pack:   6.8747 s.
CPU Driver_Time: 0.6874 s.
CPU Idle_Time:   0.2555 s.
Average split:   1.0000.
Max Mem / Proc:  209.71 MB.
Prefetch mode:   None.
Vector width:    32.
Lanes / atom:    8.
Pair block:      256.
Neigh block:     128.
Neigh mode:      Hybrid (binning on host) with subgroup support
---------------------------------------------------------------------


--------------------------------------------------------------------------
- Using acceleration for lj/cut/tip4p/long/gpu:
-  with 1 proc(s) per device.
-  with 10 thread(s) per proc.
-  Horizontal vector operations: ENABLED
-  Shared memory system: No
--------------------------------------------------------------------------
Device 0: Quadro RTX 6000, 72 CUs, 22/23 GB, 1.8 GHZ (Mixed Precision)
--------------------------------------------------------------------------

Initializing Device and compiling on process 0...Done.
Initializing Device 0 on core 0...Done.

Generated 0 of 3 mixed pair_coeff terms from geometric mixing rule
System init for write_data ...
PPPM initialization ...
  extracting TIP4P info from pair style
  using 12-bit tables for long-range coulomb
  G vector (1/distance) = 0.28818681
  grid = 50 50 50
  stencil order = 5
  estimated absolute RMS force accuracy = 0.00033222735
  estimated relative force accuracy = 1.0004928e-06
  using double precision FFTW3
  3d grid and FFT values/proc = 205379 125000

--------------------------------------------------------------------------
- Using acceleration for lj/cut/tip4p/long/gpu:
-  with 1 proc(s) per device.
-  with 10 thread(s) per proc.
-  Horizontal vector operations: ENABLED
-  Shared memory system: No
--------------------------------------------------------------------------
Device 0: Quadro RTX 6000, 72 CUs, 22/23 GB, 1.8 GHZ (Mixed Precision)
--------------------------------------------------------------------------

Initializing Device and compiling on process 0...Done.
Initializing Device 0 on core 0...Done.

Generated 0 of 3 mixed pair_coeff terms from geometric mixing rule
WARNING: Not all mixed pair coeffs generated from mixing. Use write_data with 'pair ij' option to store all pair coeffs. (src/write_data.cpp:364)

Pre-equilibration complete:
  Density:  1.04293054635375 g/cm≥
  Pressure: 552.641711285173 atm
  Volume:   54699.1914424641 Ö≥
úì Checkpoint 2 PASSED: System stable at 100 atm

===== STAGE 2: Gentle Pressure Ramp (100 ps, GPU) =====
Ramping pressure from 100 atm Üí 1 atm with drag damping

COMPARISON TO FAILED VERSION:
  OLD: 50 atm Üí 1 atm, no pre-equil Üí 169,712 atm spike at step 51k
  NEW: 100 atm Üí 1 atm, with pre-equil Üí should be smooth (< 500 atm max)
PPPM initialization ...
  extracting TIP4P info from pair style
  using 12-bit tables for long-range coulomb
  G vector (1/distance) = 0.28818681
  grid = 50 50 50
  stencil order = 5
  estimated absolute RMS force accuracy = 0.00033222735
  estimated relative force accuracy = 1.0004928e-06
  using double precision FFTW3
  3d grid and FFT values/proc = 205379 125000

--------------------------------------------------------------------------
- Using acceleration for lj/cut/tip4p/long/gpu:
-  with 1 proc(s) per device.
-  with 10 thread(s) per proc.
-  Horizontal vector operations: ENABLED
-  Shared memory system: No
--------------------------------------------------------------------------
Device 0: Quadro RTX 6000, 72 CUs, 22/23 GB, 1.8 GHZ (Mixed Precision)
--------------------------------------------------------------------------

Initializing Device and compiling on process 0...Done.
Initializing Device 0 on core 0...Done.

Generated 0 of 3 mixed pair_coeff terms from geometric mixing rule
Setting up Verlet run ...
  Unit style    : real
  Current step  : 50010
  Time step     : 2
Per MPI rank memory allocation (min/avg/max) = 59.64 | 59.64 | 59.64 Mbytes
   Step          Temp          Press          Volume         PotEng         KinEng         TotEng        Density    
     50010   300.91477      547.31057      54699.191     -20514.214      3366.3275     -17147.887      1.0429305    
     50500   303.04677     -207.64464      54783.186     -20649.81       3390.1781     -17259.632      1.0413315    
     51000   288.35953      1113.0447      54758.818     -20535.097      3225.8724     -17309.225      1.0417949    
     51500   300.4284      -53.711729      54810.312     -20668.583      3360.8865     -17307.696      1.0408161    
     52000   298.92361     -845.29876      54661.105     -20708.23       3344.0525     -17364.177      1.0436572    
     52500   303.97121      11.89617       54502.462     -20702.308      3400.5199     -17301.789      1.0466951    
     53000   298.77802     -11.854969      54614.895     -20641.975      3342.4237     -17299.551      1.0445403    
     53500   298.6082       749.19066      54756.586     -20663.279      3340.524      -17322.755      1.0418374    
     54000   300.75612      454.97369      54685.085     -20738.777      3364.5527     -17374.225      1.0431996    
     54500   298.97325     -124.93547      54779.54      -20700.925      3344.6078     -17356.317      1.0414008    
     55000   298.00092      109.22814      54863.483     -20725.633      3333.7304     -17391.902      1.0398074    
     55500   296.04016     -16.069144      55030.346     -20701.273      3311.7954     -17389.478      1.0366545    
     56000   302.45001      252.05579      54612.932     -20708.19       3383.5023     -17324.688      1.0445778    
     56500   297.64402      18.71323       54250.866     -20686.764      3329.7377     -17357.026      1.0515492    
     57000   301.22209      207.86317      54748.32      -20760.058      3369.7655     -17390.293      1.0419947    
     57500   304.32528      32.093121      54865.566     -20745.909      3404.4808     -17341.429      1.039768     
     58000   301.78431     -510.91944      54764.698     -20705.038      3376.0551     -17328.983      1.0416831    
     58500   294.70496      146.87836      54661.458     -20575.425      3296.8585     -17278.567      1.0436505    
     59000   302.39008      687.31261      55011.458     -20637.939      3382.8318     -17255.107      1.0370105    
     59500   301.03458     -252.52039      54747.172     -20716.787      3367.6678     -17349.119      1.0420165    
     60000   300.55887      380.97005      54837.645     -20637.346      3362.3461     -17275          1.0402974    
     60500   297.88758      256.99595      55483.865     -20575.816      3332.4625     -17243.353      1.028181     
     61000   299.48659      12.629401      54924.706     -20613.422      3350.3505     -17263.071      1.0386484    
     61500   301.57576      591.23071      54617.075     -20699.78       3373.7221     -17326.058      1.0444986    
     62000   296.61018      466.79815      54840.395     -20586.057      3318.1722     -17267.885      1.0402452    
     62500   299.6723      -670.12081      54985.776     -20660.372      3352.428      -17307.944      1.0374948    
     63000   298.86187     -300.54005      54844.194     -20684.843      3343.3618     -17341.482      1.0401731    
     63500   300.47168     -46.729208      54723.701     -20721.726      3361.3707     -17360.355      1.0424634    
     64000   300.72405     -302.0881       54827.93      -20704.112      3364.194      -17339.918      1.0404817    
     64500   299.20016      23.91828       54969.551     -20651.671      3347.1463     -17304.525      1.037801     
     65000   298.42847      682.78914      54394.985     -20634.62       3338.5133     -17296.106      1.0487632    
     65500   304.0028       7.5317274      54636.115     -20709.354      3400.8733     -17308.481      1.0441346    
     66000   303.58454      3.5520757      54690.833     -20746.689      3396.1942     -17350.495      1.0430899    
     66500   302.73801      213.28557      54761.842     -20714.121      3386.7241     -17327.397      1.0417374    
     67000   296.82143      345.48266      54784.047     -20662.516      3320.5354     -17341.981      1.0413151    
     67500   304.7          74.305239      54684.561     -20692.838      3408.6729     -17284.165      1.0432096    
     68000   305.20591     -737.29436      54432.956     -20714.69       3414.3324     -17300.357      1.0480316    
     68500   302.18118     -234.86267      54758.274     -20684.032      3380.4949     -17303.537      1.0418053    
     69000   297.42821      160.52411      54767.351     -20648.694      3327.3235     -17321.371      1.0416326    
     69500   302.03207     -325.63949      54766.707     -20665.576      3378.8268     -17286.75       1.0416448    
     70000   302.43947     -31.270161      55079.78      -20714.957      3383.3843     -17331.572      1.0357241    
     70500   300.89653     -777.21119      54780.806     -20625.337      3366.1235     -17259.213      1.0413767    
     71000   301.36285     -0.50314492     54607.653     -20641.731      3371.3402     -17270.391      1.0446788    
     71500   301.06628      744.57163      54371.966     -20668.536      3368.0225     -17300.514      1.0492072    
     72000   301.11074      111.0272       54777.794     -20668.748      3368.5199     -17300.228      1.041434     
     72500   301.97325     -124.40871      54796.542     -20677.274      3378.1687     -17299.106      1.0410777    
     73000   301.6809       519.81416      54506.917     -20683.132      3374.8982     -17308.234      1.0466095    
     73500   298.23622     -437.42205      54775.435     -20638.736      3336.3627     -17302.373      1.0414789    
     74000   301.46042      542.30115      54711.402     -20710.74       3372.4317     -17338.308      1.0426978    
     74500   301.37368      558.25358      54813.81      -20709.666      3371.4613     -17338.204      1.0407497    
     75000   294.57248     -601.43014      54687.036     -20616.259      3295.3765     -17320.882      1.0431624    
     75500   293.7495       559.15839      54491.74      -20559.176      3286.1698     -17273.006      1.046901     
     76000   298.79481     -406.10911      54983.958     -20650.832      3342.6116     -17308.22       1.0375291    
     76500   300.45143     -139.58128      55033.776     -20685.662      3361.1442     -17324.518      1.0365899    
     77000   299.79941      104.03239      54668.605     -20659.783      3353.85       -17305.933      1.0435141    
     77500   298.52619      214.50036      54569.107     -20670.402      3339.6066     -17330.795      1.0454167    
     78000   299.80861      41.46427       54982.184     -20651.875      3353.9529     -17297.922      1.0375626    
     78500   299.03735      206.85493      54663.352     -20610.8        3345.3249     -17265.476      1.0436143    
     79000   301.04231      444.83371      54881.958     -20649.799      3367.7544     -17282.044      1.0394574    
     79500   295.00542     -407.60679      55112.318     -20551.403      3300.2197     -17251.184      1.0351127    
     80000   301.20729     -56.310771      55026.594     -20669.559      3369.5999     -17299.959      1.0367252    
     80500   299.56267      494.58624      54956.362     -20638.702      3351.2016     -17287.5        1.0380501    
     81000   303.32933      461.02099      54907.241     -20723.283      3393.3392     -17329.944      1.0389788    
     81500   299.66121     -36.575428      55020.54      -20688.532      3352.304      -17336.229      1.0368393    
     82000   299.56922     -134.51074      54790.655     -20719.668      3351.275      -17368.394      1.0411896    
     82500   298.89007     -221.44337      55219.956     -20721.276      3343.6773     -17377.599      1.033095     
     83000   304.0789      -714.80725      54931.022     -20789.894      3401.7246     -17388.17       1.038529     
     83500   298.83897      825.1948       54466.306     -20752.475      3343.1056     -17409.37       1.0473899    
     84000   298.36629      490.62558      55099.037     -20714.909      3337.8178     -17377.091      1.0353622    
     84500   300.43012     -985.25994      55275.014     -20679.488      3360.9058     -17318.582      1.0320659    
     85000   301.24862      418.23897      55197.692     -20704.835      3370.0623     -17334.772      1.0335116    
     85500   304.44262     -770.69185      54964.678     -20771.608      3405.7935     -17365.814      1.0378931    
     86000   301.86757      123.61313      54933.534     -20711.091      3376.9865     -17334.105      1.0384815    
     86500   297.37798     -311.68663      55460.887     -20690.679      3326.7615     -17363.918      1.028607     
     87000   297.29143     -75.643431      55037.078     -20659.408      3325.7933     -17333.614      1.0365277    
     87500   300.63628      572.03447      54574.367     -20706.582      3363.2121     -17343.37       1.045316     
     88000   297.16683      18.523878      54698.479     -20713.265      3324.3994     -17388.865      1.0429441    
     88500   299.06304     -99.057479      54598.717     -20686.886      3345.6122     -17341.274      1.0448498    
     89000   298.90684     -73.916816      54872.976     -20666.08       3343.8649     -17322.215      1.0396276    
     89500   299.4769       45.87902       54707.14      -20631.662      3350.2421     -17281.42       1.042779     
     90000   307.32324      916.36733      54888.317     -20728.489      3438.019      -17290.469      1.039337     
     90500   300.60225      461.96244      54968.381     -20696.857      3362.8314     -17334.026      1.0378231    
     91000   299.39789     -163.12435      55208.747     -20624.38       3349.3582     -17275.022      1.0333047    
     91500   302.3229       551.5906       55039.666     -20699.208      3382.0803     -17317.128      1.036479     
     92000   302.56797     -386.15163      55191.172     -20717.558      3384.8219     -17332.736      1.0336337    
     92500   298.53146      168.34054      55145.549     -20652.935      3339.6655     -17313.27       1.0344889    
     93000   300.97421      16.258752      54887.48      -20686.458      3366.9925     -17319.465      1.0393528    
     93500   304.12138      579.25463      54886.551     -20742.813      3402.1998     -17340.613      1.0393704    
     94000   298.82098     -464.50744      55118.994     -20678.2        3342.9043     -17335.296      1.0349873    
     94500   297.91285     -866.07531      55233.821     -20680.722      3332.7451     -17347.977      1.0328356    
     95000   302.88797      393.94259      54739.078     -20755.961      3388.4017     -17367.559      1.0421706    
     95500   295.60208      496.16616      55099.573     -20609.651      3306.8946     -17302.757      1.0353521    
     96000   304.39293     -46.865348      54751.916     -20682.68       3405.2377     -17277.443      1.0419262    
     96500   293.50717      54.815594      54553.797     -20521.641      3283.4588     -17238.182      1.0457101    
     97000   296.18259     -329.20319      54730.012     -20575.166      3313.3888     -17261.777      1.0423432    
     97500   297.4038       457.73474      54619.694     -20553.715      3327.0504     -17226.665      1.0444485    
     98000   297.65359     -149.07899      54462.781     -20571.613      3329.8448     -17241.768      1.0474577    
     98500   302.62393      181.68443      54107.452     -20633.767      3385.4478     -17248.319      1.0543364    
     99000   300.7287      -353.05923      54440.669     -20602.023      3364.246      -17237.777      1.0478831    
     99500   298.81526     -695.18032      54360.523     -20622.316      3342.8403     -17279.476      1.0494281    
    100000   298.49558     -223.53927      54649.174     -20654.678      3339.2641     -17315.413      1.0438851    
    100010   293.47118     -345.86419      54660.096     -20596.512      3283.0562     -17313.456      1.0436765    
Loop time of 1953.75 on 10 procs for 50000 steps with 5541 atoms

Performance: 4.422 ns/day, 5.427 hours/ns, 25.592 timesteps/s, 141.805 katom-step/s
626.5% CPU use with 1 MPI tasks x 10 OpenMP threads

MPI task timing breakdown:
Section |  min time  |  avg time  |  max time  |%varavg| %total
---------------------------------------------------------------
Pair    | 45.412     | 45.412     | 45.412     |   0.0 |  2.32
Bond    | 0.6707     | 0.6707     | 0.6707     |   0.0 |  0.03
Kspace  | 887.99     | 887.99     | 887.99     |   0.0 | 45.45
Neigh   | 0.10522    | 0.10522    | 0.10522    |   0.0 |  0.01
Comm    | 20.144     | 20.144     | 20.144     |   0.0 |  1.03
Output  | 0.056007   | 0.056007   | 0.056007   |   0.0 |  0.00
Modify  | 990.81     | 990.81     | 990.81     |   0.0 | 50.71
Other   |            | 8.554      |            |       |  0.44

Nlocal:           5541 ave        5541 max        5541 min
Histogram: 1 0 0 0 0 0 0 0 0 0
Nghost:          35412 ave       35412 max       35412 min
Histogram: 1 0 0 0 0 0 0 0 0 0
Neighs:              0 ave           0 max           0 min
Histogram: 1 0 0 0 0 0 0 0 0 0

Total # of neighbors = 0
Ave neighs/atom = 0
Ave special neighs/atom = 2.4872767
Neighbor list builds = 4663
Dangerous builds = 0
System init for write_restart ...
PPPM initialization ...
  extracting TIP4P info from pair style
  using 12-bit tables for long-range coulomb
  G vector (1/distance) = 0.28819942
  grid = 50 50 50
  stencil order = 5
  estimated absolute RMS force accuracy = 0.00033200128
  estimated relative force accuracy = 9.9981199e-07
  using double precision FFTW3
  3d grid and FFT values/proc = 205379 125000


---------------------------------------------------------------------
      Device Time Info (average): 
---------------------------------------------------------------------
Data Transfer:   6.3854 s.
Neighbor copy:   1.1233 s.
Neighbor build:  5.0612 s.
Force calc:      118.7106 s.
Device Overhead: 22.4813 s.
CPU Neighbor:    4.0918 s.
CPU Cast/Pack:   14.4209 s.
CPU Driver_Time: 1.1602 s.
CPU Idle_Time:   0.5073 s.
Average split:   1.0000.
Max Mem / Proc:  238.06 MB.
Prefetch mode:   None.
Vector width:    32.
Lanes / atom:    8.
Pair block:      256.
Neigh block:     128.
Neigh mode:      Hybrid (binning on host) with subgroup support
---------------------------------------------------------------------


--------------------------------------------------------------------------
- Using acceleration for lj/cut/tip4p/long/gpu:
-  with 1 proc(s) per device.
-  with 10 thread(s) per proc.
-  Horizontal vector operations: ENABLED
-  Shared memory system: No
--------------------------------------------------------------------------
Device 0: Quadro RTX 6000, 72 CUs, 22/23 GB, 1.8 GHZ (Mixed Precision)
--------------------------------------------------------------------------

Initializing Device and compiling on process 0...Done.
Initializing Device 0 on core 0...Done.

Generated 0 of 3 mixed pair_coeff terms from geometric mixing rule
System init for write_data ...
PPPM initialization ...
  extracting TIP4P info from pair style
  using 12-bit tables for long-range coulomb
  G vector (1/distance) = 0.28819942
  grid = 50 50 50
  stencil order = 5
  estimated absolute RMS force accuracy = 0.00033200128
  estimated relative force accuracy = 9.9981199e-07
  using double precision FFTW3
  3d grid and FFT values/proc = 205379 125000

--------------------------------------------------------------------------
- Using acceleration for lj/cut/tip4p/long/gpu:
-  with 1 proc(s) per device.
-  with 10 thread(s) per proc.
-  Horizontal vector operations: ENABLED
-  Shared memory system: No
--------------------------------------------------------------------------
Device 0: Quadro RTX 6000, 72 CUs, 22/23 GB, 1.8 GHZ (Mixed Precision)
--------------------------------------------------------------------------

Initializing Device and compiling on process 0...Done.
Initializing Device 0 on core 0...Done.

Generated 0 of 3 mixed pair_coeff terms from geometric mixing rule
WARNING: Not all mixed pair coeffs generated from mixing. Use write_data with 'pair ij' option to store all pair coeffs. (src/write_data.cpp:364)

Pressure ramp complete:
  Density:  1.04367649834038 g/cm≥
  Pressure: -345.864186552935 atm
  Volume:   54660.0960229653 Ö≥
  Box size: 37.951020928029 Ö
úì Checkpoint 3 PASSED: Pressure ramp successful, liquid phase maintained

===== STAGE 3: NPT Equilibration (1000 ps, GPU) =====
Equilibrating at 300K, 1 atm with improved pressure control

Strategy:
  Phase 1 (400 ps): Higher damping for gentle pressure equilibration
  Phase 2 (600 ps): Standard damping for final equilibration

Phase 1: Gentle pressure equilibration (400 ps, pdamp=5000)...
PPPM initialization ...
  extracting TIP4P info from pair style
  using 12-bit tables for long-range coulomb
  G vector (1/distance) = 0.28819942
  grid = 50 50 50
  stencil order = 5
  estimated absolute RMS force accuracy = 0.00033200128
  estimated relative force accuracy = 9.9981199e-07
  using double precision FFTW3
  3d grid and FFT values/proc = 205379 125000

--------------------------------------------------------------------------
- Using acceleration for lj/cut/tip4p/long/gpu:
-  with 1 proc(s) per device.
-  with 10 thread(s) per proc.
-  Horizontal vector operations: ENABLED
-  Shared memory system: No
--------------------------------------------------------------------------
Device 0: Quadro RTX 6000, 72 CUs, 22/23 GB, 1.8 GHZ (Mixed Precision)
--------------------------------------------------------------------------

Initializing Device and compiling on process 0...Done.
Initializing Device 0 on core 0...Done.

Generated 0 of 3 mixed pair_coeff terms from geometric mixing rule
Setting up Verlet run ...
  Unit style    : real
  Current step  : 100010
  Time step     : 2
Per MPI rank memory allocation (min/avg/max) = 59.64 | 59.64 | 59.64 Mbytes
   Step          Temp          Press          Volume         PotEng         KinEng         TotEng        Density    
    100010   293.47118     -335.36804      54660.096     -20596.536      3283.0562     -17313.48       1.0436765    
    101000   294.46488      224.77653      54799.554     -20653.647      3294.1728     -17359.474      1.0410205    
    102000   299.01745      387.73052      54398.91      -20645.53       3345.1023     -17300.428      1.0486875    
    103000   295.36655      699.94349      54277.519     -20599.106      3304.2597     -17294.846      1.0510329    
    104000   299.80912      785.48481      55092.507     -20590.266      3353.9586     -17236.308      1.0354849    
    105000   306.8068      -0.10325027     55364.895     -20624.173      3432.2415     -17191.931      1.0303904    
    106000   303.93448      51.079956      54798.807     -20688.305      3400.1089     -17288.196      1.0410347    
    107000   295.07244     -90.678687      54848.894     -20715.932      3300.9696     -17414.963      1.040084     
    108000   299.73717     -145.82845      54877.963     -20673.021      3353.1538     -17319.867      1.0395331    
    109000   303.47711      256.51884      54959.92      -20677.341      3394.9924     -17282.348      1.0379829    
    110000   302.37866      14.492978      54918.123     -20648.942      3382.704      -17266.238      1.0387729    
    111000   303.30942      1071.8118      54789.201     -20576.865      3393.1164     -17183.748      1.0412172    
    112000   298.50879      300.19465      54944.713     -20649.322      3339.4119     -17309.911      1.0382702    
    113000   303.49833      77.784702      55402.208     -20597.79       3395.2298     -17202.561      1.0296965    
    114000   301.10454      258.00154      54695.682     -20652.482      3368.4505     -17284.031      1.0429975    
    115000   296.55178     -148.95755      54860.708     -20610.302      3317.5188     -17292.783      1.03986      
    116000   301.87602     -290.37797      55283.794     -20815.144      3377.0811     -17438.063      1.031902     
    117000   296.88037      362.18515      54808.259     -20700.404      3321.1948     -17379.209      1.0408551    
    118000   289.97208     -407.74677      54687.474     -20727.779      3243.9119     -17483.867      1.043154     
    119000   299.73371     -658.44339      54745.052     -20575.759      3353.1151     -17222.644      1.0420569    
    120000   300.96625      400.45163      54717.474     -20582.008      3366.9035     -17215.104      1.0425821    
    121000   294.79179     -115.3252       55172.166     -20616.325      3297.8299     -17318.495      1.0339898    
    122000   296.5409      -31.116158      54765.295     -20815.338      3317.3971     -17497.94       1.0416717    
    123000   304.379        1405.2692      54434.663     -20756.637      3405.0818     -17351.555      1.0479987    
    124000   296.40144      347.65808      55114.121     -20707.497      3315.837      -17391.66       1.0350788    
    125000   296.25248      281.38221      55668.692     -20692.493      3314.1706     -17378.323      1.0247674    
    126000   304.22361     -349.02171      54986.192     -20589.237      3403.3434     -17185.893      1.037487     
    127000   296.8888       651.65664      54693.985     -20642.171      3321.2891     -17320.882      1.0430298    
    128000   302.81026     -72.53279       55121.335     -20640.534      3387.5324     -17253.001      1.0349433    
    129000   297.7295      -722.44645      55162.011     -20677.059      3330.694      -17346.365      1.0341802    
    130000   304.1213      -442.17225      54798.556     -20743.764      3402.199      -17341.565      1.0410394    
    131000   304.87561      648.06741      54666.58      -20615.167      3410.6374     -17204.529      1.0435527    
    132000   302.62979      288.16376      55184.889     -20602.365      3385.5135     -17216.851      1.0337514    
    133000   301.435       -28.296916      54947.353     -20681.634      3372.1474     -17309.486      1.0382203    
    134000   299.98522     -226.88474      54973.883     -20645.589      3355.9287     -17289.66       1.0377193    
    135000   303.095        832.50024      54773.775     -20513.15       3390.7178     -17122.432      1.0415104    
    136000   298.70563      289.25664      54630.101     -20581.369      3341.6139     -17239.755      1.0442495    
    137000   296.4494      -635.79978      54782.381     -20682.066      3316.3736     -17365.692      1.0413468    
    138000   296.21617      275.20339      54805.815     -20765.159      3313.7645     -17451.395      1.0409015    
    139000   305.92746      384.98111      54791.74      -20631.564      3422.4044     -17209.16       1.0411689    
    140000   300.9598      -121.03501      54745.282     -20690.147      3366.8313     -17323.315      1.0420525    
    141000   293.52263     -28.4695        54725.18      -20724          3283.6318     -17440.368      1.0424353    
    142000   306.70032      383.57402      54662.31      -20662.965      3431.0504     -17231.915      1.0436342    
    143000   299.80163      159.52727      54639.057     -20666.391      3353.8748     -17312.516      1.0440784    
    144000   298.57374     -472.2951       54783.746     -20639.269      3340.1385     -17299.13       1.0413209    
    145000   298.91768      15.803766      54445.782     -20735.283      3343.9862     -17391.297      1.0477847    
    146000   303.43879      126.73445      55155.192     -20721.571      3394.5638     -17327.007      1.034308     
    147000   302.6361      -156.47763      55510.367     -20630.117      3385.5841     -17244.533      1.0276902    
    148000   309.80243      854.21383      54981.345     -20809.303      3465.7537     -17343.549      1.0375784    
    149000   300.14334      158.71943      55013.818     -20747.026      3357.6976     -17389.329      1.036966     
    150000   301.43661     -447.93271      55289.131     -20663.764      3372.1654     -17291.599      1.0318024    
    151000   298.92544      91.606444      54392.243     -20638.799      3344.0729     -17294.726      1.048816     
    152000   309.34846     -177.79232      54322.678     -20669.707      3460.6751     -17209.032      1.0501592    
    153000   298.06475     -28.765687      54635.341     -20722.539      3334.4445     -17388.095      1.0441494    
    154000   294.19942      297.76366      54723.044     -20693.889      3291.2031     -17402.686      1.0424759    
    155000   302.29417     -868.5479       54370.391     -20706.518      3381.7589     -17324.759      1.0492376    
    156000   296.26371      17.719039      54830.087     -20709.472      3314.2962     -17395.176      1.0404408    
    157000   292.09794      462.90441      54975.226     -20671.639      3267.6938     -17403.945      1.0376939    
    158000   302.7338       991.02302      54508.555     -20552.837      3386.677      -17166.16       1.0465781    
    159000   298.48799     -142.00932      54906.781     -20684.107      3339.1792     -17344.928      1.0389875    
    160000   299.93608      539.70509      55372.532     -20593.484      3355.3789     -17238.105      1.0302483    
    161000   299.63709     -489.69873      54939.197     -20712.244      3352.0342     -17360.21       1.0383744    
    162000   300.26473     -196.91369      54978.333     -20644.707      3359.0556     -17285.651      1.0376353    
    163000   302.9368      -338.45378      55234.872     -20695.261      3388.9479     -17306.313      1.032816     
    164000   303.40411      273.60643      55280.318     -20696.058      3394.1758     -17301.882      1.0319669    
    165000   309.85092     -172.83724      55173.906     -20570.776      3466.2961     -17104.48       1.0339572    
    166000   299.8599       522.04795      54477.09      -20734.173      3354.5268     -17379.647      1.0471825    
    167000   297.75144      414.13658      54826.338     -20671.499      3330.9394     -17340.56       1.0405119    
    168000   295.22008     -239.14875      55727.378     -20628.778      3302.6211     -17326.157      1.0236882    
    169000   300.47764     -58.141312      54977.217     -20764.807      3361.4374     -17403.37       1.0376563    
    170000   300.61073      333.28237      54704.08      -20740.234      3362.9263     -17377.307      1.0428374    
    171000   298.66907     -468.77392      54914.204     -20659.411      3341.2049     -17318.206      1.038847     
    172000   305.83754      194.88461      54922.365     -20684.394      3421.3985     -17262.995      1.0386927    
    173000   301.5874      -603.51457      55089.244     -20642.825      3373.8522     -17268.973      1.0355462    
    174000   298.02356      693.82325      54803.168     -20771.943      3333.9836     -17437.959      1.0409518    
    175000   299.04922     -116.19162      55069.784     -20639.475      3345.4576     -17294.018      1.0359121    
    176000   298.70718      213.27835      54985.203     -20587.667      3341.6313     -17246.036      1.0375056    
    177000   292.65923      984.81069      54444.607     -20682.151      3273.973      -17408.177      1.0478073    
    178000   298.93277     -87.908587      55234.524     -20710.081      3344.155      -17365.926      1.0328225    
    179000   295.35773      94.388524      54825.13      -20695.34       3304.161      -17391.179      1.0405348    
    180000   302.16784      589.65232      54651.045     -20640.83       3380.3456     -17260.484      1.0438493    
    181000   296.49282     -91.023484      55415.516     -20647.563      3316.8593     -17330.704      1.0294492    
    182000   295.64751      570.71409      54661.547     -20719.93       3307.4028     -17412.527      1.0436488    
    183000   301.39198     -245.37691      54564.966     -20565.073      3371.666      -17193.407      1.0454961    
    184000   302.02886      710.82199      55055.506     -20623.989      3378.7908     -17245.198      1.0361808    
    185000   291.22035     -389.82763      55466.168     -20631.413      3257.8763     -17373.537      1.0285091    
    186000   292.46378      886.45568      54694.096     -20602.241      3271.7865     -17330.454      1.0430277    
    187000   302.87012     -310.15106      54438.663     -20590.843      3388.202      -17202.641      1.0479217    
    188000   301.11121      134.67876      54799.901     -20633.122      3368.5251     -17264.596      1.0410139    
    189000   307.13906     -243.13325      54577.611     -20630.847      3435.9585     -17194.888      1.0452538    
    190000   308.63575     -416.17725      54420.371     -20717.673      3452.702      -17264.971      1.048274     
    191000   298.77637      569.01419      54482.032     -20658.454      3342.4053     -17316.048      1.0470875    
    192000   293.6458       584.23799      54521.046     -20745.142      3285.0097     -17460.132      1.0463383    
    193000   303.73332      168.9151       54622.118     -20741.599      3397.8587     -17343.74       1.0444022    
    194000   294.13951     -28.234893      55587.407     -20561.466      3290.5329     -17270.933      1.0262659    
    195000   302.51607      878.04574      55158.205     -20711.947      3384.2412     -17327.706      1.0342515    
    196000   300.88263     -530.53602      54715.979     -20659.448      3365.968      -17293.48       1.0426106    
    197000   300.46795     -23.569227      55004.662     -20633.099      3361.329      -17271.77       1.0371386    
    198000   304.42105     -378.93731      54583.044     -20835.937      3405.5523     -17430.385      1.0451498    
    199000   297.96        -501.96429      54829.379     -20665.201      3333.2726     -17331.928      1.0404542    
    200000   304.94952     -444.2431       55162.055     -20600.564      3411.4642     -17189.099      1.0341793    
    201000   299.98107     -204.77996      55401.572     -20757.008      3355.8823     -17401.126      1.0297083    
    202000   302.43079     -67.02928       55301.834     -20762.048      3383.2872     -17378.761      1.0315654    
    203000   299.52393     -315.07769      55351.276     -20591.997      3350.7682     -17241.229      1.0306439    
    204000   303.14829     -471.26866      55018.288     -20615.968      3391.3139     -17224.654      1.0368817    
    205000   298.15873      57.639273      54479.179     -20718.836      3335.4958     -17383.34       1.0471424    
    206000   300.94164      73.405302      54374.499     -20736.717      3366.6281     -17370.089      1.0491583    
    207000   297.86995     -484.84204      54933.955     -20790.26       3332.2652     -17457.994      1.0384735    
    208000   303.40427     -361.36329      54793.353     -20684.426      3394.1776     -17290.249      1.0411383    
    209000   294.64272     -341.0188       54798.246     -20526.04       3296.1623     -17229.878      1.0410453    
    210000   296.54132     -230.38387      55207.319     -20715.189      3317.4019     -17397.787      1.0333314    
    211000   304.07684     -78.534386      54918.894     -20626.28       3401.7015     -17224.578      1.0387583    
    212000   298.59431     -464.95878      54603.499     -20677.937      3340.3686     -17337.568      1.0447583    
    213000   297.36225     -65.804139      54496.644     -20710.649      3326.5856     -17384.064      1.0468068    
    214000   298.02173     -857.59076      55158.88      -20629.992      3333.9631     -17296.029      1.0342389    
    215000   299.75724      95.836406      55080.798     -20508.654      3353.3782     -17155.275      1.035705     
    216000   302.16941      953.81458      54896.184     -20627.993      3380.3631     -17247.63       1.039188     
    217000   304.55998      17.103357      55241.47      -20686.834      3407.1065     -17279.728      1.0326926    
    218000   304.87893      367.71011      54958.494     -20655.528      3410.6745     -17244.854      1.0380098    
    219000   292.54207      545.57557      53926.319     -20673.547      3272.6624     -17400.885      1.0578778    
    220000   295.71473     -602.1849       54873.598     -20589.885      3308.1548     -17281.73       1.0396158    
    221000   299.01866     -718.7669       55119.555     -20828.074      3345.1157     -17482.958      1.0349768    
    222000   301.15052      374.17806      54762.913     -20720.49       3368.9649     -17351.525      1.041717     
    223000   312.84538      118.71921      54689.675     -20624.806      3499.795      -17125.011      1.043112     
    224000   299.0064       63.519403      54504.164     -20683.716      3344.9787     -17338.738      1.0466624    
    225000   306.7063      -35.654984      54532.173     -20648.834      3431.1173     -17217.716      1.0461248    
    226000   300.2386       217.15197      55001.235     -20760.422      3358.7633     -17401.659      1.0372032    
    227000   304.2554      -988.78596      55229.856     -20697.939      3403.6991     -17294.239      1.0329098    
    228000   294.8166       750.62415      54263.483     -20706.694      3298.1075     -17408.587      1.0513048    
    229000   303.82436      5.1012407      55291.246     -20668.213      3398.8771     -17269.336      1.0317629    
    230000   295.85418     -414.4112       55343.305     -20675.776      3309.7148     -17366.061      1.0307924    
    231000   294.61268      463.89673      55179.952     -20590.468      3295.8262     -17294.642      1.0338439    
    232000   302.73141      876.79291      54363.182     -20501.6        3386.6503     -17114.949      1.0493767    
    233000   298.37163     -905.38066      54510.381     -20670.999      3337.8775     -17333.122      1.046543     
    234000   305.28956      95.454903      55146.07      -20795.883      3415.2682     -17380.615      1.0344791    
    235000   307.72521     -610.56451      55525.206     -20557.904      3442.5158     -17115.388      1.0274155    
    236000   302.47815      159.506        54864.471     -20696.337      3383.8171     -17312.52       1.0397887    
    237000   299.03111     -675.79832      55049.535     -20668.453      3345.255      -17323.198      1.0362932    
    238000   294.26713     -655.05503      55309.968     -20661.764      3291.9605     -17369.804      1.0314137    
    239000   298.79921      182.7699       54738.709     -20596.391      3342.6608     -17253.73       1.0421776    
    240000   303.33555     -87.957396      54976.867     -20704.443      3393.4088     -17311.034      1.0376629    
    241000   300.03004      182.83335      55023.163     -20573.048      3356.43       -17216.618      1.0367899    
    242000   301.26228      680.8221       54645.469     -20733.144      3370.2151     -17362.929      1.0439559    
    243000   299.6594      -1327.7105      55291.532     -20634.046      3352.2837     -17281.762      1.0317576    
    244000   297.67219     -97.018467      54621.713     -20649.498      3330.0529     -17319.445      1.0444099    
    245000   297.72142     -308.93533      54824.179     -20685.463      3330.6037     -17354.859      1.0405529    
    246000   296.24022      109.05537      54766.217     -20638.426      3314.0335     -17324.393      1.0416542    
    247000   302.34257      504.71951      54306.216     -20629.464      3382.3004     -17247.164      1.0504775    
    248000   294.91025     -43.148524      54678.358     -20566.796      3299.1551     -17267.64       1.0433279    
    249000   296.87322     -199.16505      54702.625     -20675.191      3321.1148     -17354.076      1.0428651    
    250000   303.2026       293.1831       54355.936     -20716.199      3391.9214     -17324.278      1.0495166    
    251000   300.6126       610.82173      55016.769     -20560.634      3362.9472     -17197.686      1.0369103    
    252000   308.91817      873.385        54798.107     -20624.925      3455.8615     -17169.063      1.041048     
    253000   301.14919     -804.34388      54813.822     -20644.923      3368.95       -17275.973      1.0407495    
    254000   296.51108     -459.89086      54900.867     -20726.522      3317.0635     -17409.459      1.0390994    
    255000   295.67643     -147.1446       55008.226     -20809.208      3307.7263     -17501.482      1.0370714    
    256000   303.29851     -644.20556      55165.313     -20614.181      3392.9944     -17221.187      1.0341183    
    257000   296.1116       223.29156      54875.792     -20696.474      3312.5946     -17383.879      1.0395742    
    258000   303.28552     -412.62659      54902.342     -20482.056      3392.8491     -17089.207      1.0390715    
    259000   301.53604     -123.08324      54726.485     -20722.194      3373.2777     -17348.916      1.0424104    
    260000   299.83041     -876.9563       54692.925     -20701.507      3354.1968     -17347.311      1.04305      
    261000   297.70937     -212.11767      54652.7       -20635.592      3330.4688     -17305.123      1.0438177    
    262000   304.12858      268.97915      54231.908     -20686.804      3402.2804     -17284.523      1.0519168    
    263000   294.10445      39.717359      54408.168     -20559.922      3290.1406     -17269.781      1.0485091    
    264000   296.1531      -296.91651      54895.2       -20627.244      3313.0588     -17314.185      1.0392067    
    265000   298.89818     -239.50393      54584.902     -20606.133      3343.768      -17262.365      1.0451142    
    266000   302.57883      367.76099      54553.613     -20637.855      3384.9433     -17252.912      1.0457136    
    267000   300.21156     -330.09355      54408.052     -20628.785      3358.4608     -17270.324      1.0485113    
    268000   308.39371      1059.6884      54569.022     -20579.965      3449.9943     -17129.971      1.0454184    
    269000   297.17506     -14.82673       54987.469     -20623.665      3324.4915     -17299.174      1.0374629    
    270000   295.73617     -487.06134      55162.089     -20652.662      3308.3947     -17344.268      1.0341787    
    271000   304.82447      298.56869      54178.001     -20677.591      3410.0652     -17267.525      1.0529635    
    272000   297.2689      -63.426527      54752.429     -20732.836      3325.5413     -17407.295      1.0419165    
    273000   297.81251     -129.96939      55144.573     -20707.968      3331.6227     -17376.345      1.0345072    
    274000   303.60188      114.36641      55111.416     -20641.35       3396.3882     -17244.962      1.0351296    
    275000   294.65683      401.68532      55035.834     -20599.136      3296.3201     -17302.816      1.0365512    
    276000   302.12708     -62.751057      55072.033     -20519.625      3379.8897     -17139.735      1.0358698    
    277000   299.76775     -183.19752      55138.129     -20635.202      3353.4958     -17281.706      1.0346281    
    278000   293.45113     -53.999082      55687.556     -20568.103      3282.8319     -17285.271      1.0244202    
    279000   305.74733      369.38153      55058.022     -20657.01       3420.3893     -17236.621      1.0361334    
    280000   297.39678     -455.59453      54742.2       -20711.458      3326.9719     -17384.487      1.0421112    
    281000   299.88282     -348.49455      55160.98      -20647.516      3354.7831     -17292.733      1.0341995    
    282000   304.74877     -439.20012      55024.854     -20734.194      3409.2184     -17324.976      1.036758     
    283000   300.3208      -231.02433      55007.787     -20708.106      3359.6828     -17348.424      1.0370797    
    284000   304.81745     -115.7848       54972.649     -20632.407      3409.9868     -17222.42       1.0377426    
    285000   302.01517     -542.07256      54541.865     -20659.049      3378.6377     -17280.411      1.0459389    
    286000   300.56397     -231.59999      55043.71      -20590.35       3362.4031     -17227.946      1.0364028    
    287000   292.70622     -100.54244      55776.746     -20683.116      3274.4986     -17408.618      1.0227821    
    288000   296.5109      -464.17492      55087.921     -20624.271      3317.0615     -17307.209      1.0355711    
    289000   298.98865      376.3174       54924.512     -20662.119      3344.7801     -17317.339      1.0386521    
    290000   296.67029     -345.4699       55512.434     -20701.136      3318.8447     -17382.291      1.0276519    
    291000   303.00131     -413.03866      55286.069     -20708.461      3389.6696     -17318.792      1.0318595    
    292000   294.75144     -327.80404      54829.624     -20717.28       3297.3785     -17419.902      1.0404495    
    293000   303.14016     -447.0855       54859.901     -20534.341      3391.2229     -17143.118      1.0398753    
    294000   299.86711     -200.51751      54985.658     -20659.717      3354.6074     -17305.109      1.037497     
    295000   303.84733      29.367949      55121.157     -20659.586      3399.134      -17260.452      1.0349467    
    296000   306.6652       267.96357      54331.383     -20664.991      3430.6575     -17234.333      1.0499909    
    297000   300.26236      459.00351      54636.682     -20644.544      3359.029      -17285.515      1.0441238    
    298000   308.97634      357.04327      54738.217     -20697.062      3456.5122     -17240.55       1.042187     
    299000   298.64074      452.11936      54720.642     -20583.268      3340.888      -17242.38       1.0425217    
    300000   296.48391     -306.49391      55222.574     -20672.462      3316.7596     -17355.702      1.033046     
    300010   295.29823     -526.39713      55225.42      -20669.921      3303.4954     -17366.425      1.0329927    
Loop time of 7819.91 on 10 procs for 200000 steps with 5541 atoms

Performance: 4.419 ns/day, 5.430 hours/ns, 25.576 timesteps/s, 141.715 katom-step/s
624.5% CPU use with 1 MPI tasks x 10 OpenMP threads

MPI task timing breakdown:
Section |  min time  |  avg time  |  max time  |%varavg| %total
---------------------------------------------------------------
Pair    | 169.41     | 169.41     | 169.41     |   0.0 |  2.17
Bond    | 2.6302     | 2.6302     | 2.6302     |   0.0 |  0.03
Kspace  | 3533.1     | 3533.1     | 3533.1     |   0.0 | 45.18
Neigh   | 0.41406    | 0.41406    | 0.41406    |   0.0 |  0.01
Comm    | 80.384     | 80.384     | 80.384     |   0.0 |  1.03
Output  | 0.97238    | 0.97238    | 0.97238    |   0.0 |  0.01
Modify  | 3999       | 3999       | 3999       |   0.0 | 51.14
Other   |            | 33.98      |            |       |  0.43

Nlocal:           5541 ave        5541 max        5541 min
Histogram: 1 0 0 0 0 0 0 0 0 0
Nghost:          35195 ave       35195 max       35195 min
Histogram: 1 0 0 0 0 0 0 0 0 0
Neighs:              0 ave           0 max           0 min
Histogram: 1 0 0 0 0 0 0 0 0 0

Total # of neighbors = 0
Ave neighs/atom = 0
Ave special neighs/atom = 2.4872767
Neighbor list builds = 18580
Dangerous builds = 0

Phase 1 complete:
  Density:  1.03299273733229 g/cm≥
  Pressure: -526.397129377166 atm

Phase 2: Final equilibration (600 ps, pdamp=2000)...
PPPM initialization ...
  extracting TIP4P info from pair style
  using 12-bit tables for long-range coulomb
  G vector (1/distance) = 0.28801786
  grid = 50 50 50
  stencil order = 5
  estimated absolute RMS force accuracy = 0.00033527061
  estimated relative force accuracy = 1.0096575e-06
  using double precision FFTW3
  3d grid and FFT values/proc = 205379 125000


---------------------------------------------------------------------
      Device Time Info (average): 
---------------------------------------------------------------------
Data Transfer:   25.4968 s.
Neighbor copy:   4.4516 s.
Neighbor build:  19.2420 s.
Force calc:      466.4800 s.
Device Overhead: 6.2016 s.
CPU Neighbor:    16.2189 s.
CPU Cast/Pack:   54.7249 s.
CPU Driver_Time: 5.3556 s.
CPU Idle_Time:   2.0388 s.
Average split:   1.0000.
Max Mem / Proc:  127.46 MB.
Prefetch mode:   None.
Vector width:    32.
Lanes / atom:    8.
Pair block:      256.
Neigh block:     128.
Neigh mode:      Hybrid (binning on host) with subgroup support
---------------------------------------------------------------------


--------------------------------------------------------------------------
- Using acceleration for lj/cut/tip4p/long/gpu:
-  with 1 proc(s) per device.
-  with 10 thread(s) per proc.
-  Horizontal vector operations: ENABLED
-  Shared memory system: No
--------------------------------------------------------------------------
Device 0: Quadro RTX 6000, 72 CUs, 22/23 GB, 1.8 GHZ (Mixed Precision)
--------------------------------------------------------------------------

Initializing Device and compiling on process 0...Done.
Initializing Device 0 on core 0...Done.

Generated 0 of 3 mixed pair_coeff terms from geometric mixing rule
Setting up Verlet run ...
  Unit style    : real
  Current step  : 300010
  Time step     : 2
Per MPI rank memory allocation (min/avg/max) = 62.19 | 62.19 | 62.19 Mbytes
   Step          Temp          Press          Volume         PotEng         KinEng         TotEng        Density    
    300010   295.29823     -523.74191      55225.42      -20669.869      3303.4954     -17366.374      1.0329927    
    301000   304.84932      1045.7245      54641.653     -20540.845      3410.3433     -17130.502      1.0440288    
    302000   307.09277     -116.7311       54806.411     -20625.19       3435.4407     -17189.749      1.0408902    
    303000   298.08788      316.99804      54475.159     -20680.299      3334.7032     -17345.596      1.0472197    
    304000   299.95064     -78.662532      54935.299     -20712.36       3355.5419     -17356.818      1.0384481    
    305000   305.20634      102.97577      54615.516     -20665.692      3414.3373     -17251.355      1.0445284    
    306000   298.04752     -96.75091       55035.229     -20703.518      3334.2517     -17369.267      1.0365626    
    307000   303.15363     -73.045855      55312.81      -20753.274      3391.3737     -17361.901      1.0313607    
    308000   299.47777     -718.4673       55468.688     -20534          3350.2518     -17183.748      1.0284624    
    309000   298.57612     -580.32951      55130.301     -20732.038      3340.1651     -17391.873      1.034775     
    310000   297.61314      870.37737      54441.424     -20700.993      3329.3923     -17371.6        1.0478686    
    311000   295.60256      344.02361      54708.729     -20731.534      3306.8999     -17424.634      1.0427487    
    312000   302.3595       100.06803      54896.813     -20745.849      3382.4897     -17363.359      1.0391761    
    313000   307.7143       373.51505      54795.739     -20761.247      3442.3938     -17318.853      1.041093     
    314000   292.11718     -352.71516      54457.645     -20714.776      3267.9091     -17446.867      1.0475564    
    315000   304.05047     -819.65512      54767.922     -20644.134      3401.4066     -17242.727      1.0416217    
    316000   303.82704      209.97598      55348.888     -20590.95       3398.907      -17192.043      1.0306884    
    317000   311.15884      62.465901      55139.208     -20530.838      3480.9278     -17049.91       1.0346078    
    318000   301.06817     -145.47315      54821.101     -20765.444      3368.0436     -17397.401      1.0406113    
    319000   295.23187      520.76921      55093.445     -20794.962      3302.7531     -17492.208      1.0354672    
    320000   292.30875     -109.14933      55092.127     -20574.324      3270.0522     -17304.271      1.035492     
    321000   296.15058      54.228141      54496.013     -20725.343      3313.0306     -17412.312      1.0468189    
    322000   296.31531     -62.436536      54762.838     -20731.221      3314.8735     -17416.347      1.0417184    
    323000   301.73431     -115.52696      54767.721     -20622.846      3375.4958     -17247.35       1.0416255    
    324000   296.7361      -500.36278      55188.261     -20708.763      3319.5808     -17389.182      1.0336883    
    325000   295.1226      -232.6244       55042.097     -20654.645      3301.5306     -17353.114      1.0364332    
    326000   297.5143      -278.8817       54794.109     -20672.288      3328.2865     -17344.002      1.0411239    
    327000   301.38155     -5.0013002      54565.88      -20744.751      3371.5494     -17373.202      1.0454786    
    328000   298.25968     -64.850272      54746.258     -20561.383      3336.6251     -17224.758      1.0420339    
    329000   297.58752      523.60069      54348.606     -20721.35       3329.1057     -17392.244      1.0496582    
    330000   298.88158      842.35635      54496.874     -20772.589      3343.5823     -17429.006      1.0468024    
    331000   295.92256      394.76879      54967.7       -20560.739      3310.4798     -17250.259      1.037836     
    332000   301.68339      929.6276       54490.491     -20668.9        3374.9261     -17293.974      1.046925     
    333000   301.43023      579.76112      55145.42      -20686.133      3372.094      -17314.039      1.0344913    
    334000   304.99164      706.15218      54900.748     -20705.224      3411.9354     -17293.288      1.0391016    
    335000   296.70472     -68.523471      54555.106     -20764.638      3319.2298     -17445.408      1.045685     
    336000   305.88806     -44.945748      54276.719     -20601.715      3421.9636     -17179.751      1.0510484    
    337000   291.3092      -377.49016      54651.23      -20784.736      3258.8702     -17525.866      1.0438458    
    338000   300.17115      499.31903      55333.837     -20664.191      3358.0087     -17306.182      1.0309688    
    339000   303.02331     -654.96104      55214.399     -20615.656      3389.9158     -17225.741      1.0331989    
    340000   297.01054      238.62157      54611.755     -20678.977      3322.651      -17356.326      1.0446003    
    341000   295.76745     -855.64171      54663.571     -20743.007      3308.7446     -17434.263      1.0436102    
    342000   295.21499     -932.04293      54572.549     -20790.662      3302.5643     -17488.098      1.0453508    
    343000   296.61851      87.218339      54911.256     -20703.614      3318.2653     -17385.348      1.0389028    
    344000   298.61869      1566.8318      54498.047     -20713.166      3340.6413     -17372.525      1.0467799    
    345000   298.27978      834.86854      54740.058     -20539.195      3336.8499     -17202.345      1.0421519    
    346000   302.85954     -367.7821       54609.2       -20640.091      3388.0836     -17252.007      1.0446492    
    347000   299.39569      504.03734      54435.771     -20640.152      3349.3337     -17290.818      1.0479774    
    348000   296.17575     -566.16771      54949.676     -20623.615      3313.3122     -17310.302      1.0381764    
    349000   301.2125      -203.12197      54808.685     -20652.406      3369.6582     -17282.747      1.040847     
    350000   297.40954      691.03778      54477.404     -20602.644      3327.1147     -17275.529      1.0471765    
    351000   299.64253     -669.12365      55277.458     -20598.843      3352.095      -17246.748      1.0320203    
    352000   305.48959      1015.0452      54768.575     -20736.209      3417.506      -17318.703      1.0416093    
    353000   294.68113     -371.56197      55074.938     -20612.466      3296.5919     -17315.874      1.0358152    
    354000   299.98143      303.68257      55035.883     -20721.972      3355.8863     -17366.086      1.0365502    
    355000   301.22525      149.50893      55274.365     -20640.064      3369.8009     -17270.263      1.032078     
    356000   301.93084      909.0744       54701.311     -20668.531      3377.6943     -17290.837      1.0428901    
    357000   307.25957     -209.03075      54922.491     -20641.08       3437.3067     -17203.774      1.0386903    
    358000   304.05581      239.02552      55079.224     -20753.644      3401.4663     -17352.178      1.0357346    
    359000   301.90841      339.26387      54520.248     -20770.302      3377.4433     -17392.859      1.0463536    
    360000   304.77237     -311.43672      54855.197     -20605.189      3409.4824     -17195.706      1.0399645    
    361000   296.45389     -217.70208      55219.752     -20646.622      3316.4237     -17330.199      1.0330988    
    362000   300.61452      867.65801      54479.688     -20583.169      3362.9686     -17220.2        1.0471326    
    363000   291.83933      444.99064      54677.428     -20668.793      3264.8008     -17403.993      1.0433457    
    364000   298.46381     -633.32482      54768.847     -20646.653      3338.9087     -17307.744      1.0416041    
    365000   306.86324     -119.74171      55313.46      -20645.664      3432.8729     -17212.791      1.0313486    
    366000   299.34372      267.72474      54991.929     -20668.291      3348.7522     -17319.539      1.0373787    
    367000   299.89312     -94.951402      55175.622     -20574.132      3354.8984     -17219.233      1.033925     
    368000   301.46792     -782.82976      54764.544     -20653.365      3372.5156     -17280.85       1.041686     
    369000   297.96837      121.86455      54608.89      -20730.444      3333.3662     -17397.077      1.0446551    
    370000   299.61202      748.05112      54984.066     -20698.266      3351.7537     -17346.512      1.0375271    
    371000   295.97898      44.540841      54734.356     -20669.229      3311.111      -17358.118      1.0422605    
    372000   300.29327      681.41691      54779.116     -20718.725      3359.3748     -17359.35       1.0414089    
    373000   303.67191      751.58331      54952.201     -20642.018      3397.1716     -17244.847      1.0381287    
    374000   300.36496      3.0908024      55006.023     -20729.949      3360.1769     -17369.772      1.0371129    
    375000   302.09278     -338.85678      54757.7       -20793.818      3379.506      -17414.312      1.0418162    
    376000   297.70712     -472.00739      54812.298     -20596.087      3330.4436     -17265.643      1.0407784    
    377000   300.48773      551.09293      55062.199     -20662.645      3361.5503     -17301.094      1.0360548    
    378000   295.2177      -159.32529      54880.999     -20620.588      3302.5946     -17317.994      1.0394756    
    379000   299.49542      14.448418      54780.937     -20743.762      3350.4493     -17393.312      1.0413743    
    380000   302.08869     -98.091096      54832.985     -20741.528      3379.4602     -17362.068      1.0403858    
[...]
   2495000   294.18546      660.72843      54249.952     -20712.2        3291.0469     -17421.153      1.051567     
   2496000   295.33024      254.41235      54351.11      -20710.789      3303.8535     -17406.935      1.0496098    
   2497000   303.69728     -72.38456       54512.1       -20646.618      3397.4554     -17249.163      1.04651      
   2498000   298.18341      1318.0543      54499.081     -20691.761      3335.7718     -17355.989      1.04676      
   2499000   297.13211     -148.77569      54645.717     -20666.59       3324.011      -17342.579      1.0439511    
   2500000   303.13749      448.45341      54980.54      -20647.275      3391.193      -17256.082      1.0375936    
   2501000   306.84568      47.081389      54759.829     -20643.024      3432.6765     -17210.348      1.0417757    
   2502000   294.20581     -256.13085      54745.935     -20770.873      3291.2745     -17479.599      1.0420401    
   2503000   305.56209     -750.39954      54985.587     -20814.243      3418.3171     -17395.926      1.0374984    
   2504000   298.14374     -94.993477      54575.505     -20798.824      3335.3281     -17463.496      1.0452942    
   2505000   305.50516     -453.14667      54842.705     -20654.144      3417.6802     -17236.464      1.0402014    
   2506000   300.42827     -168.78683      55333.891     -20638.301      3360.8851     -17277.416      1.0309678    
   2507000   302.83485     -670.22402      54920.649     -20642.811      3387.8074     -17255.003      1.0387251    
   2508000   296.28769      271.86057      54368.91      -20662.688      3314.5644     -17348.124      1.0492662    
   2509000   293.01601      558.79202      55129.817     -20536.99       3277.9643     -17259.026      1.0347841    
   2510000   299.45801     -256.58203      55077.994     -20610.725      3350.0308     -17260.694      1.0357577    
   2511000   301.67091      238.90301      55301.123     -20557.782      3374.7865     -17182.995      1.0315787    
   2512000   299.62828      200.50078      54432.947     -20698.758      3351.9356     -17346.822      1.0480318    
   2513000   301.42767      268.34427      54636.964     -20704.61       3372.0653     -17332.545      1.0441184    
   2514000   295.72828     -446.6569       55296.663     -20767.049      3308.3064     -17458.742      1.0316619    
   2515000   299.21985      390.71864      55364.561     -20797.329      3347.3665     -17449.962      1.0303966    
   2516000   297.9481       24.561918      55933.474     -20672.661      3333.1395     -17339.521      1.0199162    
   2517000   301.8438      -359.27347      55219.29      -20752.575      3376.7206     -17375.854      1.0331074    
   2518000   304.70246      281.30081      55081.587     -20667.445      3408.7004     -17258.744      1.0356902    
   2519000   300.28012     -644.6416       55411.277     -20596.954      3359.2278     -17237.726      1.0295279    
   2520000   299.56762      1002.9566      54873.891     -20770.856      3351.257      -17419.599      1.0396102    
   2521000   299.39459      995.58245      55060.558     -20663.728      3349.3213     -17314.406      1.0360857    
   2522000   295.4819      -399.57135      54924.453     -20668.4        3305.5501     -17362.85       1.0386532    
   2523000   302.96454     -642.87939      54882.911     -20765.21       3389.2583     -17375.952      1.0394394    
   2524000   292.41867      426.54804      54853.701     -20629.615      3271.2819     -17358.333      1.0399929    
   2525000   301.69619     -638.62698      54872.187     -20834.119      3375.0693     -17459.05       1.0396425    
   2526000   296.85664      559.78256      54490.904     -20696.703      3320.9294     -17375.773      1.0469171    
   2527000   301.24499      56.956821      54341.491     -20749.082      3370.0217     -17379.061      1.0497956    
   2528000   305.378       -977.74474      54833.952     -20657.316      3416.2577     -17241.059      1.0403674    
   2529000   298.434        255.10899      54706.404     -20565.873      3338.5752     -17227.298      1.042793     
   2530000   292.6197      -48.909262      54813.639     -20650.025      3273.5307     -17376.494      1.040753     
   2531000   300.24009     -511.5235       55436.874     -20775.168      3358.7799     -17416.388      1.0290526    
   2532000   308.54422     -300.0672       55155.712     -20713.536      3451.678      -17261.858      1.0342983    
   2533000   300.95368      530.73391      54590.494     -20757.381      3366.7628     -17390.618      1.0450072    
   2534000   298.75959     -54.026983      54684.554     -20709.745      3342.2176     -17367.527      1.0432097    
   2535000   301.16903      384.55034      54480.06      -20610.335      3369.172      -17241.163      1.0471254    
   2536000   292.60189     -826.68099      55156.138     -20664.512      3273.3315     -17391.18       1.0342903    
   2537000   299.00641      439.12428      54688.368     -20711.5        3344.9788     -17366.521      1.043137     
   2538000   299.35059      212.92051      55308.912     -20669.673      3348.8291     -17320.844      1.0314334    
   2539000   299.48011     -262.78449      54461.912     -20820.586      3350.2781     -17470.308      1.0474744    
   2540000   302.50246      296.85829      54978.292     -20721.302      3384.089      -17337.213      1.0376361    
   2541000   298.85209      130.39956      55422.283     -20674.999      3343.2524     -17331.746      1.0293235    
   2542000   298.50681     -524.17931      54912.033     -20774.6        3339.3898     -17435.21       1.0388881    
   2543000   301.97141      80.798465      54990.603     -20746.299      3378.1481     -17368.151      1.0374037    
   2544000   295.52132     -793.7586       55461.455     -20717.974      3305.9911     -17411.982      1.0285965    
   2545000   300.23935      93.204104      54910.308     -20640.089      3358.7717     -17281.317      1.0389207    
   2546000   298.06099      207.95821      54884.55      -20527.848      3334.4023     -17193.446      1.0394083    
   2547000   302.88719      630.58919      54517.59      -20688.547      3388.393      -17300.154      1.0464046    
   2548000   304.35001      334.83154      54963.887     -20684.151      3404.7575     -17279.393      1.037908     
   2549000   302.29057      1200.9108      54869.613     -20723.36       3381.7186     -17341.642      1.0396913    
   2550000   296.20503     -488.20115      54879.953     -20574.231      3313.6397     -17260.591      1.0394954    
   2551000   306.79825     -212.91319      55031.904     -20697.223      3432.1459     -17265.077      1.0366252    
   2552000   300.88152      225.78601      55000.802     -20670.535      3365.9556     -17304.579      1.0372114    
   2553000   296.86262      292.05078      54632.92      -20732.614      3320.9962     -17411.617      1.0441957    
   2554000   303.44798      760.91404      54478.326     -20711.497      3394.6665     -17316.83       1.0471588    
   2555000   301.54062      71.119366      54773.836     -20646.31       3373.3289     -17272.981      1.0415093    
   2556000   297.5979       272.45022      55052.288     -20595.862      3329.2218     -17266.641      1.0362414    
   2557000   302.18076     -49.971171      55467.927     -20588.821      3380.4902     -17208.33       1.0284765    
   2558000   301.29694      206.73987      54962.249     -20764.064      3370.6029     -17393.462      1.0379389    
   2559000   302.40212     -503.86202      55324.868     -20587.604      3382.9665     -17204.638      1.0311359    
   2560000   299.74148      470.44711      55063.17      -20619.432      3353.202      -17266.23       1.0360366    
   2561000   304.34948     -391.3865       54883.345     -20686.435      3404.7516     -17281.683      1.0394311    
   2562000   306.08359      190.69424      54991.776     -20646.822      3424.1511     -17222.671      1.0373816    
   2563000   293.92232     -816.37845      54918.531     -20697.699      3288.1032     -17409.595      1.0387652    
   2564000   305.37982     -373.60062      55481.378     -20831.878      3416.278      -17415.6        1.0282271    
   2565000   301.992       -231.1242       54669.989     -20741.067      3378.3785     -17362.688      1.0434876    
   2566000   304.57801      237.60832      55405.041     -20515.216      3407.3081     -17107.908      1.0296438    
   2567000   301.09989      488.61639      55138.003     -20577.683      3368.3985     -17209.285      1.0346305    
   2568000   300.90886      162.33302      55077.708     -20668.123      3366.2615     -17301.862      1.0357631    
   2569000   300.22355      33.650981      55126.426     -20683.679      3358.5949     -17325.084      1.0348477    
   2570000   296.4294       886.35311      55187.307     -20756.281      3316.1499     -17440.131      1.0337061    
   2571000   303.17859      396.23928      54719.635     -20780.867      3391.6528     -17389.214      1.0425409    
   2572000   301.50249     -268.82683      54912.734     -20775.982      3372.9024     -17403.08       1.0388748    
   2573000   300.7612      -64.554274      54957.282     -20699.027      3364.6096     -17334.417      1.0380327    
   2574000   301.26207      40.129841      54876.713     -20656.98       3370.2128     -17286.767      1.0395568    
   2575000   295.86272     -16.510748      54600.715     -20835.713      3309.8104     -17525.903      1.0448116    
   2576000   301.95972      492.30707      55298.706     -20668.885      3378.0174     -17290.868      1.0316237    
   2577000   301.04924     -851.22499      55371.502     -20677.318      3367.8318     -17309.487      1.0302675    
   2578000   297.97581     -1154.0081      55743.511     -20480.045      3333.4494     -17146.596      1.0233919    
   2579000   303.61397     -159.09632      54921.792     -20646.926      3396.5235     -17250.403      1.0387035    
   2580000   302.65626     -68.31854       54960.26      -20681.905      3385.8096     -17296.096      1.0379765    
   2581000   296.7087       848.63469      54685.154     -20614.291      3319.2743     -17295.017      1.0431983    
   2582000   301.2864       204.48546      54778.856     -20663.91       3370.485      -17293.425      1.0414138    
   2583000   301.49741      55.533163      54747.157     -20783.658      3372.8456     -17410.812      1.0420168    
   2584000   305.05804      87.51642       54897.428     -20660.822      3412.6782     -17248.144      1.0391645    
   2585000   298.14866     -167.18794      54771.255     -20639.579      3335.3832     -17304.196      1.0415583    
   2586000   300.08161     -131.28461      55311.21      -20659.294      3357.007      -17302.287      1.0313905    
   2587000   301.92356      197.82796      55068.303     -20618.269      3377.6128     -17240.657      1.03594      
   2588000   301.24131     -10.753982      54934.641     -20654.303      3369.9805     -17284.323      1.0384605    
   2589000   292.27977      129.08667      54854.134     -20730.461      3269.728      -17460.733      1.0399847    
   2590000   302.29892     -616.41197      54965.36      -20831.594      3381.812      -17449.782      1.0378802    
   2591000   300.76422     -242.35157      55104.672     -20765.873      3364.6433     -17401.229      1.0352563    
   2592000   295.90331     -199.99762      54630.919     -20639.68       3310.2645     -17329.416      1.0442339    
   2593000   300.60167      688.14165      54550.39      -20596.097      3362.8249     -17233.272      1.0457754    
   2594000   300.99988     -130.75577      55211.63      -20694.65       3367.2797     -17327.371      1.0332507    
   2595000   299.04495      623.12871      54753.576     -20658.439      3345.41       -17313.029      1.0418946    
   2596000   295.14684      306.60822      55014.327     -20657.072      3301.8018     -17355.27       1.0369564    
   2597000   298.05579     -364.01559      54744.151     -20702.456      3334.3442     -17368.111      1.042074     
   2598000   299.41866     -230.29632      55041.914     -20731.082      3349.5906     -17381.492      1.0364367    
   2599000   293.54873     -969.61241      55156.341     -20707.106      3283.9238     -17423.183      1.0342865    
   2600000   302.63962      132.2614       54529.843     -20769.774      3385.6234     -17384.151      1.0461695    
   2600010   301.83883      155.33621      54562.284     -20761.476      3376.665      -17384.811      1.0455475    
Loop time of 79242.7 on 10 procs for 2000000 steps with 5541 atoms

Performance: 4.361 ns/day, 5.503 hours/ns, 25.239 timesteps/s, 139.849 katom-step/s
620.5% CPU use with 1 MPI tasks x 10 OpenMP threads

MPI task timing breakdown:
Section |  min time  |  avg time  |  max time  |%varavg| %total
---------------------------------------------------------------
Pair    | 1946.8     | 1946.8     | 1946.8     |   0.0 |  2.46
Bond    | 26.79      | 26.79      | 26.79      |   0.0 |  0.03
Kspace  | 35407      | 35407      | 35407      |   0.0 | 44.68
Neigh   | 81.277     | 81.277     | 81.277     |   0.0 |  0.10
Comm    | 803.54     | 803.54     | 803.54     |   0.0 |  1.01
Output  | 33.448     | 33.448     | 33.448     |   0.0 |  0.04
Modify  | 40602      | 40602      | 40602      |   0.0 | 51.24
Other   |            | 341.4      |            |       |  0.43

Nlocal:           5541 ave        5541 max        5541 min
Histogram: 1 0 0 0 0 0 0 0 0 0
Nghost:          35462 ave       35462 max       35462 min
Histogram: 1 0 0 0 0 0 0 0 0 0
Neighs:    4.72283e+06 ave 4.72283e+06 max 4.72283e+06 min
Histogram: 1 0 0 0 0 0 0 0 0 0

Total # of neighbors = 4722831
Ave neighs/atom = 852.34272
Ave special neighs/atom = 2.4872767
Neighbor list builds = 186537
Dangerous builds = 0

===== Saving Final Configuration =====
System init for write_data ...
PPPM initialization ...
  extracting TIP4P info from pair style
  using 12-bit tables for long-range coulomb
  G vector (1/distance) = 0.28823101
  grid = 50 50 50
  stencil order = 5
  estimated absolute RMS force accuracy = 0.00033143567
  estimated relative force accuracy = 9.9810867e-07
  using double precision FFTW3
  3d grid and FFT values/proc = 205379 125000


---------------------------------------------------------------------
      Device Time Info (average): 
---------------------------------------------------------------------
Data Transfer:   257.1392 s.
Neighbor copy:   44.7738 s.
Neighbor build:  228.5681 s.
Force calc:      5125.2339 s.
Device Overhead: 56.0000 s.
CPU Neighbor:    163.4300 s.
CPU Cast/Pack:   569.8439 s.
CPU Driver_Time: 50.5322 s.
CPU Idle_Time:   20.5008 s.
Average split:   1.0000.
Max Mem / Proc:  127.46 MB.
Prefetch mode:   None.
Vector width:    32.
Lanes / atom:    8.
Pair block:      256.
Neigh block:     128.
Neigh mode:      Hybrid (binning on host) with subgroup support
---------------------------------------------------------------------


--------------------------------------------------------------------------
- Using acceleration for lj/cut/tip4p/long/gpu:
-  with 1 proc(s) per device.
-  with 10 thread(s) per proc.
-  Horizontal vector operations: ENABLED
-  Shared memory system: No
--------------------------------------------------------------------------
Device 0: Quadro RTX 6000, 72 CUs, 23/23 GB, 1.8 GHZ (Mixed Precision)
--------------------------------------------------------------------------

Initializing Device and compiling on process 0...Done.
Initializing Device 0 on core 0...Done.

Generated 0 of 3 mixed pair_coeff terms from geometric mixing rule
WARNING: Not all mixed pair coeffs generated from mixing. Use write_data with 'pair ij' option to store all pair coeffs. (src/write_data.cpp:364)
System init for write_restart ...
PPPM initialization ...
  extracting TIP4P info from pair style
  using 12-bit tables for long-range coulomb
  G vector (1/distance) = 0.28823101
  grid = 50 50 50
  stencil order = 5
  estimated absolute RMS force accuracy = 0.00033143567
  estimated relative force accuracy = 9.9810867e-07
  using double precision FFTW3
  3d grid and FFT values/proc = 205379 125000

--------------------------------------------------------------------------
- Using acceleration for lj/cut/tip4p/long/gpu:
-  with 1 proc(s) per device.
-  with 10 thread(s) per proc.
-  Horizontal vector operations: ENABLED
-  Shared memory system: No
--------------------------------------------------------------------------
Device 0: Quadro RTX 6000, 72 CUs, 23/23 GB, 1.8 GHZ (Mixed Precision)
--------------------------------------------------------------------------

Initializing Device and compiling on process 0...Done.
Initializing Device 0 on core 0...Done.

Generated 0 of 3 mixed pair_coeff terms from geometric mixing rule

ïêïêïêïêïêïêïêïêïêïêïêïêïêïêïêïêïêïêïêïêïêïêïêïêïêïêïêïêïêïêïêïêïêïêïêïêïêïêïêïêïêïêïêïêïêïêïêïêïêïêïêïêïêïêïêïêïêïêïêïêïêïêïêïêïêïêïêïêïêïêïêïêïêïêïêïê
                     EQUILIBRATION COMPLETE - SUCCESS!
ïêïêïêïêïêïêïêïêïêïêïêïêïêïêïêïêïêïêïêïêïêïêïêïêïêïêïêïêïêïêïêïêïêïêïêïêïêïêïêïêïêïêïêïêïêïêïêïêïêïêïêïêïêïêïêïêïêïêïêïêïêïêïêïêïêïêïêïêïêïêïêïêïêïêïêïê

Simulation Summary:
  Total simulation time: 5.22 ns
    - NVT thermalization:     50 ps
    - Pre-equilibration:      50 ps  (NEW - prevents PPPM artifacts)
    - Pressure ramp:         100 ps  (EXTENDED and with drag damping)
    - NPT equilibration:    1000 ps
    - Production run:       4000 ps (4 ns)

Final Thermodynamic State:
  Temperature:    301.838833859805 K      (target: 300K)
  Pressure:       155.336214654877 atm   (target: 1 atm)
  Density:        1.04554747029672 g/cm≥  (target: 0.95-1.05)
  Volume:         54562.283623533 Ö≥
  Box size:       37.9283700540748 Ö    (expected: 58-63)

Final Energies:
  Potential:      -20761.4764293199 kcal/mol
  Kinetic:        3376.6650331243 kcal/mol
  Total:          -17384.8113961956 kcal/mol

ERROR: Input line quote not followed by white-space (src/input.cpp:556)
Last input line: if "${final_dens} >= 0.85 && ${final_dens} <= 1.15" then "print '‚úÖ SUCCESS: System equilibrated to LIQUID PHASE!'" "print ''" "print 'Quality Indicators:'" "if '${final_dens} >= 0.95 && ${final_dens} <= 1.05' then 'print \" ‚úì Density: EXCELLENT (within 5% of water)\"' else 'print \" ‚ö† Density: ACCEPTABLE (but check TIP4P/2005 reference)\"'" "if '${final_press} >= -50.0 && ${final_press} <= 50.0' then 'print \" ‚úì Pressure: EXCELLENT (normal fluctuations)\"' else 'print \" ‚ö† Pressure: CHECK (may need longer equilibration)\"'" "if '${final_temp} >= 295.0 && ${final_temp} <= 305.0' then 'print \" ‚úì Temperature: EXCELLENT\"' else 'print \" ‚ö† Temperature: CHECK (thermostat may need tuning)\"'" else "print '‚ö†Ô∏è WARNING: Density ${final_dens} g/cm¬≥ outside normal range'" "print 'Expected: 0.95-1.05 g/cm¬≥ for TIP4P/2005 water at 300K, 1 atm'" "print ''" "print 'Possible explanations:'" "print ' - System still equilibrating (try longer NPT)'" "print ' - Force field parameters incorrect'" "print ' - Nanoparticle affecting bulk water density'"
Cuda driver error 4 in call at file '/home/iiserk/sbs/solvent/mylammps_v2/lib/gpu/geryon/nvd_timer.h' in line 98.
Cuda driver error 4 in call at file '/home/iiserk/sbs/solvent/mylammps_v2/lib/gpu/geryon/nvd_timer.h' in line 99.
Cuda driver error 4 in call at file '/home/iiserk/sbs/solvent/mylammps_v2/lib/gpu/geryon/nvd_timer.h' in line 98.
Cuda driver error 4 in call at file '/home/iiserk/sbs/solvent/mylammps_v2/lib/gpu/geryon/nvd_timer.h' in line 99.
Cuda driver error 4 in call at file '/home/iiserk/sbs/solvent/mylammps_v2/lib/gpu/geryon/nvd_timer.h' in line 98.
Cuda driver error 4 in call at file '/home/iiserk/sbs/solvent/mylammps_v2/lib/gpu/geryon/nvd_timer.h' in line 99.
Cuda driver error 4 in call at file '/home/iiserk/sbs/solvent/mylammps_v2/lib/gpu/geryon/nvd_timer.h' in line 98.
Cuda driver error 4 in call at file '/home/iiserk/sbs/solvent/mylammps_v2/lib/gpu/geryon/nvd_timer.h' in line 99.
