LAMMPS (10 Sep 2025)
  using 5 OpenMP thread(s) per MPI task
Reading data file ...
  orthogonal box = (-20 -20 -20) to (20 20 20)
  1 by 1 by 1 MPI processor grid
  reading atoms ...
  5541 atoms
  reading velocities ...
  5541 velocities
  scanning bonds ...
  3 = max bonds/atom
  scanning angles ...
  1 = max angles/atom
  orthogonal box = (-20 -20 -20) to (20 20 20)
  1 by 1 by 1 MPI processor grid
  reading bonds ...
  3844 bonds
  reading angles ...
  1787 angles
Finding 1-2 1-3 1-4 neighbors ...
  special bond factors lj:    0        0        0       
  special bond factors coul:  0        0        0       
     3 = max # of 1-2 neighbors
     6 = max # of 1-3 neighbors
    18 = max # of 1-4 neighbors
    17 = max # of special neighbors
  special bonds CPU = 0.002 seconds
  read_data CPU = 0.091 seconds
180 atoms in group carbon
5361 atoms in group water
1787 atoms in group oxygen
3574 atoms in group hydrogen
60 atoms in group c60_1
60 atoms in group c60_2
60 atoms in group c60_3
WARNING: Detected non-ASCII characters in input. Will try to continue by replacing with ASCII equivalents where known. (src/input.cpp:479)
ïêïêïêïêïêïêïêïêïêïêïêïêïêïêïêïêïêïêïêïêïêïêïêïêïêïêïêïêïêïêïêïêïêïêïêïêïêïêïêïêïêïêïêïêïêïêïêïêïêïêïêïêïêïêïêïêïêïêïêïêïêïêïêïêïêïêïêïêïêïêïêïêïêïêïêïê
SYSTEM INFORMATION:
  Epsilon (O-C): 0.6 kcal/mol
  Random seed:   42
  Timestep:      2.0 fs (with SHAKE constraints)
  PPPM grid:     40ó40ó40 (LOCKED to prevent artifacts)
ïêïêïêïêïêïêïêïêïêïêïêïêïêïêïêïêïêïêïêïêïêïêïêïêïêïêïêïêïêïêïêïêïêïêïêïêïêïêïêïêïêïêïêïêïêïêïêïêïêïêïêïêïêïêïêïêïêïêïêïêïêïêïêïêïêïêïêïêïêïêïêïêïêïêïêïê

===== STAGE 0: Gentle Minimization (removing any overlaps) =====
Using CPU pair style for numerical stability during minimization


CITE-CITE-CITE-CITE-CITE-CITE-CITE-CITE-CITE-CITE-CITE-CITE-CITE

Your simulation uses code contributions which should be cited:
- GPU package (short-range, long-range and three-body potentials): doi:10.1016/j.cpc.2010.12.021, doi:10.1016/j.cpc.2011.10.012, doi:10.1016/j.cpc.2013.08.002, doi:10.1016/j.commatsci.2014.10.068, doi:10.1016/j.cpc.2016.10.020, doi:10.3233/APC200086
The log file lists these citations in BibTeX format.

CITE-CITE-CITE-CITE-CITE-CITE-CITE-CITE-CITE-CITE-CITE-CITE-CITE

Switching to 'neigh_modify every 1 delay 0 check yes' setting during minimization
PPPM initialization ...
  extracting TIP4P info from pair style
  using 12-bit tables for long-range coulomb
  G vector (1/distance) = 0.28512662
  grid = 50 50 50
  stencil order = 5
  estimated absolute RMS force accuracy = 0.00038934319
  estimated relative force accuracy = 1.1724955e-06
  using double precision FFTW3
  3d grid and FFT values/proc = 185193 125000

--------------------------------------------------------------------------
- Using acceleration for lj/cut/tip4p/long/gpu:
-  with 1 proc(s) per device.
-  with 5 thread(s) per proc.
-  Horizontal vector operations: ENABLED
-  Shared memory system: No
--------------------------------------------------------------------------
Device 0: Quadro RTX 6000, 72 CUs, 23/23 GB, 1.8 GHZ (Mixed Precision)
--------------------------------------------------------------------------

Initializing Device and compiling on process 0...Done.
Initializing Device 0 on core 0...Done.

Generated 0 of 3 mixed pair_coeff terms from geometric mixing rule
Setting up cg style minimization ...
  Unit style    : real
  Current step  : 0
Per MPI rank memory allocation (min/avg/max) = 51.83 | 51.83 | 51.83 Mbytes
   Step          Temp          Press          Volume         PotEng         KinEng         TotEng        Density    
         0   36.495381      27210.54       64000         -23239.008      602.67332     -22636.335      0.89136653   
        10   36.495381     -19492.511      64000         -142261.46      602.67332     -141658.79      0.89136653   
Loop time of 0.200623 on 5 procs for 10 steps with 5541 atoms

466.2% CPU use with 1 MPI tasks x 5 OpenMP threads

Minimization stats:
  Stopping criterion = max iterations
  Energy initial, next-to-last, final = 
     -23239.0080832433  -124583.367451384  -142261.459420477
  Force two-norm initial, final = 2152.672 6845.3154
  Force max component initial, final = 49.702498 356.1144
  Final line search alpha, max atom move = 0.00038398808 0.13674369
  Iterations, force evaluations = 10 10

MPI task timing breakdown:
Section |  min time  |  avg time  |  max time  |%varavg| %total
---------------------------------------------------------------
Pair    | 0.0099829  | 0.0099829  | 0.0099829  |   0.0 |  4.98
Bond    | 0.001975   | 0.001975   | 0.001975   |   0.0 |  0.98
Kspace  | 0.18236    | 0.18236    | 0.18236    |   0.0 | 90.90
Neigh   | 0          | 0          | 0          |   0.0 |  0.00
Comm    | 0.0032395  | 0.0032395  | 0.0032395  |   0.0 |  1.61
Output  | 0.00010519 | 0.00010519 | 0.00010519 |   0.0 |  0.05
Modify  | 1.182e-06  | 1.182e-06  | 1.182e-06  |   0.0 |  0.00
Other   |            | 0.002955   |            |       |  1.47

Nlocal:           5541 ave        5541 max        5541 min
Histogram: 1 0 0 0 0 0 0 0 0 0
Nghost:          33839 ave       33839 max       33839 min
Histogram: 1 0 0 0 0 0 0 0 0 0
Neighs:              0 ave           0 max           0 min
Histogram: 1 0 0 0 0 0 0 0 0 0

Total # of neighbors = 0
Ave neighs/atom = 0
Ave special neighs/atom = 2.4872767
Neighbor list builds = 0
Dangerous builds = 0
Minimization complete. PE = -142261.459420477 kcal/mol (was -23,217)

Applying SHAKE constraints...
Finding SHAKE clusters ...
       0 = # of size 2 clusters
       0 = # of size 3 clusters
       0 = # of size 4 clusters
    1787 = # of frozen angles
  find clusters CPU = 0.002 seconds
SHAKE constraint verification:
  Expected: ~2000 water molecules with constrained bonds and angles
  Check minimization output for cluster sizes

GPU Acceleration Status:
  úì Pair forces (LJ):      GPU (lj/cut/tip4p/long/gpu)
  úì Coulomb (PPPM):        CPU (pppm/tip4p) - GPU suffix not available
  úì Neighbor lists:        GPU (neigh yes)
  Üí Expected speedup:      2-3ó vs CPU-only version (pair forces only)

===== STAGE 1: NVT Thermalization (50 ps, GPU) =====
Objective: Reach 300K while maintaining initial density
PPPM initialization ...
  extracting TIP4P info from pair style
  using 12-bit tables for long-range coulomb
  G vector (1/distance) = 0.28512662
  grid = 50 50 50
  stencil order = 5
  estimated absolute RMS force accuracy = 0.00038934319
  estimated relative force accuracy = 1.1724955e-06
  using double precision FFTW3
  3d grid and FFT values/proc = 185193 125000


---------------------------------------------------------------------
      Device Time Info (average): 
---------------------------------------------------------------------
Data Transfer:   0.0017 s.
Neighbor copy:   0.0003 s.
Neighbor build:  0.0130 s.
Force calc:      0.0243 s.
Device Overhead: 0.0007 s.
CPU Neighbor:    0.0065 s.
CPU Cast/Pack:   0.0019 s.
CPU Driver_Time: 0.0007 s.
CPU Idle_Time:   0.0001 s.
Average split:   1.0000.
Max Mem / Proc:  98.37 MB.
Prefetch mode:   None.
Vector width:    32.
Lanes / atom:    8.
Pair block:      256.
Neigh block:     128.
Neigh mode:      Hybrid (binning on host) with subgroup support
---------------------------------------------------------------------


--------------------------------------------------------------------------
- Using acceleration for lj/cut/tip4p/long/gpu:
-  with 1 proc(s) per device.
-  with 5 thread(s) per proc.
-  Horizontal vector operations: ENABLED
-  Shared memory system: No
--------------------------------------------------------------------------
Device 0: Quadro RTX 6000, 72 CUs, 20/23 GB, 1.8 GHZ (Mixed Precision)
--------------------------------------------------------------------------

Initializing Device and compiling on process 0...Done.
Initializing Device 0 on core 0...Done.

Generated 0 of 3 mixed pair_coeff terms from geometric mixing rule
Setting up Verlet run ...
  Unit style    : real
  Current step  : 10
  Time step     : 2
Per MPI rank memory allocation (min/avg/max) = 51.29 | 51.29 | 51.29 Mbytes
   Step          Temp          Press          Volume         PotEng         KinEng         TotEng        Density    
        10   300           -111965.57      64000         -142261.46      3356.094      -138905.37      0.89136653   
      1000   297.44737     -1237.7323      64000         -20390.8        3327.5378     -17063.262      0.89136653   
      2000   301.84159     -1076.4779      64000         -20455.585      3376.6959     -17078.889      0.89136653   
      3000   299.60228     -1100.9497      64000         -20686.804      3351.6447     -17335.159      0.89136653   
      4000   300.56331     -1001.1962      64000         -20824.975      3362.3958     -17462.579      0.89136653   
      5000   301.77627     -705.81543      64000         -20819.711      3375.9652     -17443.746      0.89136653   
      6000   305.92718     -1569.2788      64000         -20937.431      3422.4013     -17515.03       0.89136653   
      7000   300.92248     -1461.9477      64000         -20884.504      3366.4138     -17518.09       0.89136653   
      8000   304.78819     -1210.4397      64000         -20697.338      3409.6594     -17287.678      0.89136653   
      9000   307.36158     -905.88747      64000         -20871.587      3438.4479     -17433.139      0.89136653   
     10000   300.38751     -1815.6983      64000         -20762.975      3360.4291     -17402.546      0.89136653   
     11000   306.69455     -1957.0342      64000         -20811.758      3430.9858     -17380.772      0.89136653   
     12000   302.93007     -765.76055      64000         -20989.194      3388.8727     -17600.321      0.89136653   
     13000   300.08941     -1201.799       64000         -20942.262      3357.0942     -17585.168      0.89136653   
     14000   306.24158     -1151.6408      64000         -20855.577      3425.9185     -17429.659      0.89136653   
     15000   303.81765     -1149.7713      64000         -20805.718      3398.8021     -17406.916      0.89136653   
     16000   296.72353     -969.84971      64000         -20772.388      3319.4402     -17452.948      0.89136653   
     17000   299.80607     -1172.7291      64000         -20759.49       3353.9245     -17405.566      0.89136653   
     18000   291.94885     -1560.387       64000         -20849.137      3266.026      -17583.111      0.89136653   
     19000   292.8578      -1405.845       64000         -20898.918      3276.1944     -17622.724      0.89136653   
     20000   301.3818      -1551.9588      64000         -20919.077      3371.5522     -17547.525      0.89136653   
     21000   294.95939     -1244.1762      64000         -20897.081      3299.7049     -17597.377      0.89136653   
     22000   302.94889     -1015.2921      64000         -20815.975      3389.0833     -17426.892      0.89136653   
     23000   303.30421     -464.38244      64000         -20888.829      3393.0581     -17495.771      0.89136653   
     24000   298.8299      -826.08152      64000         -20929.155      3343.0041     -17586.151      0.89136653   
     25000   300.56401     -1318.1972      64000         -20881.236      3362.4036     -17518.832      0.89136653   
     25010   300.92145     -1238.2969      64000         -20872.748      3366.4023     -17506.346      0.89136653   
Loop time of 712.402 on 5 procs for 25000 steps with 5541 atoms

Performance: 6.064 ns/day, 3.958 hours/ns, 35.093 timesteps/s, 194.448 katom-step/s
442.1% CPU use with 1 MPI tasks x 5 OpenMP threads

MPI task timing breakdown:
Section |  min time  |  avg time  |  max time  |%varavg| %total
---------------------------------------------------------------
Pair    | 23.199     | 23.199     | 23.199     |   0.0 |  3.26
Bond    | 0.32416    | 0.32416    | 0.32416    |   0.0 |  0.05
Kspace  | 650.21     | 650.21     | 650.21     |   0.0 | 91.27
Neigh   | 0.071831   | 0.071831   | 0.071831   |   0.0 |  0.01
Comm    | 11.483     | 11.483     | 11.483     |   0.0 |  1.61
Output  | 0.11146    | 0.11146    | 0.11146    |   0.0 |  0.02
Modify  | 23.65      | 23.65      | 23.65      |   0.0 |  3.32
Other   |            | 3.35       |            |       |  0.47

Nlocal:           5541 ave        5541 max        5541 min
Histogram: 1 0 0 0 0 0 0 0 0 0
Nghost:          33115 ave       33115 max       33115 min
Histogram: 1 0 0 0 0 0 0 0 0 0
Neighs:              0 ave           0 max           0 min
Histogram: 1 0 0 0 0 0 0 0 0 0

Total # of neighbors = 0
Ave neighs/atom = 0
Ave special neighs/atom = 2.4872767
Neighbor list builds = 2330
Dangerous builds = 1
System init for write_restart ...
PPPM initialization ...
  extracting TIP4P info from pair style
  using 12-bit tables for long-range coulomb
  G vector (1/distance) = 0.28512662
  grid = 50 50 50
  stencil order = 5
  estimated absolute RMS force accuracy = 0.00038934319
  estimated relative force accuracy = 1.1724955e-06
  using double precision FFTW3
  3d grid and FFT values/proc = 185193 125000


---------------------------------------------------------------------
      Device Time Info (average): 
---------------------------------------------------------------------
Data Transfer:   2.7151 s.
Neighbor copy:   0.6347 s.
Neighbor build:  2.6810 s.
Force calc:      22.0521 s.
Device Overhead: 0.7095 s.
CPU Neighbor:    2.3263 s.
CPU Cast/Pack:   5.9367 s.
CPU Driver_Time: 0.6363 s.
CPU Idle_Time:   0.3377 s.
Average split:   1.0000.
Max Mem / Proc:  203.73 MB.
Prefetch mode:   None.
Vector width:    32.
Lanes / atom:    8.
Pair block:      256.
Neigh block:     128.
Neigh mode:      Hybrid (binning on host) with subgroup support
---------------------------------------------------------------------


--------------------------------------------------------------------------
- Using acceleration for lj/cut/tip4p/long/gpu:
-  with 1 proc(s) per device.
-  with 5 thread(s) per proc.
-  Horizontal vector operations: ENABLED
-  Shared memory system: No
--------------------------------------------------------------------------
Device 0: Quadro RTX 6000, 72 CUs, 20/23 GB, 1.8 GHZ (Mixed Precision)
--------------------------------------------------------------------------

Initializing Device and compiling on process 0...Done.
Initializing Device 0 on core 0...Done.

Generated 0 of 3 mixed pair_coeff terms from geometric mixing rule
NVT complete. Temperature: 300.921448179472 K (target: 300K)
úì Checkpoint 1 PASSED: Density = 0.891366525253082 g/cm≥

===== STAGE 1.5: Pre-Equilibration at 100 atm (50 ps, GPU) =====
üîß CRITICAL FIX: Reducing initial pressure before main ramp
Objective: Equilibrate volume at moderate pressure to prevent PPPM artifacts

Why this is needed:
  - NVT creates high pressure (~800 atm) in fixed volume
  - Direct ramp from 800Üí1 atm caused 169k atm spike (PPPM grid change)
  - Pre-equilibrating at 100 atm reduces initial pressure safely
  - Main ramp (100Üí1 atm) will then cause only ~5% box expansion
PPPM initialization ...
  extracting TIP4P info from pair style
  using 12-bit tables for long-range coulomb
  G vector (1/distance) = 0.28512662
  grid = 50 50 50
  stencil order = 5
  estimated absolute RMS force accuracy = 0.00038934319
  estimated relative force accuracy = 1.1724955e-06
  using double precision FFTW3
  3d grid and FFT values/proc = 185193 125000

--------------------------------------------------------------------------
- Using acceleration for lj/cut/tip4p/long/gpu:
-  with 1 proc(s) per device.
-  with 5 thread(s) per proc.
-  Horizontal vector operations: ENABLED
-  Shared memory system: No
--------------------------------------------------------------------------
Device 0: Quadro RTX 6000, 72 CUs, 20/23 GB, 1.8 GHZ (Mixed Precision)
--------------------------------------------------------------------------

Initializing Device and compiling on process 0...Done.
Initializing Device 0 on core 0...Done.

Generated 0 of 3 mixed pair_coeff terms from geometric mixing rule
Setting up Verlet run ...
  Unit style    : real
  Current step  : 25010
  Time step     : 2
Per MPI rank memory allocation (min/avg/max) = 51.29 | 51.29 | 51.29 Mbytes
   Step          Temp          Press          Volume         PotEng         KinEng         TotEng        Density    
     25010   300.92145     -1237.8378      64000         -20872.748      3366.4023     -17506.346      0.89136653   
     26000   305.57421     -199.99026      61247.053     -21064.241      3418.4526     -17645.789      0.93143188   
     27000   302.15241     -115.73526      59115.829     -21059.512      3380.173      -17679.339      0.96501155   
     28000   299.82317     -547.34286      57495.833     -21157.423      3354.1158     -17803.308      0.9922016    
     29000   309.80984     -798.14982      56161.768     -21345.866      3465.8365     -17880.029      1.0157703    
     30000   290.32899      247.80427      55220.054     -21112.543      3247.9047     -17864.638      1.0330931    
     31000   302.95633      659.09055      54543.608     -21107.797      3389.1665     -17718.63       1.0459055    
     32000   294.43911     -600.11087      53980.058     -21299.955      3293.8845     -18006.071      1.0568247    
     33000   293.22372      253.15529      53519.754     -21191.221      3280.2879     -17910.933      1.065914     
     34000   298.68932      1289.8444      53396.599     -21174.408      3341.4315     -17832.976      1.0683725    
     35000   299.41197      431.67199      53403.108     -21252.184      3349.5157     -17902.668      1.0682423    
     36000   298.7391       94.221282      53843.044     -21152.078      3341.9884     -17810.09       1.059514     
     37000   302.92838      358.55185      54058.771     -21220.118      3388.8538     -17831.264      1.0552859    
     38000   301.36922      82.356962      53672.699     -21302.93       3371.4115     -17931.518      1.0628766    
     39000   304.96325      500.30012      53696.714     -21256.62       3411.6178     -17845.002      1.0624013    
     40000   308.23418     -250.32732      53919.648     -21223.896      3448.2097     -17775.686      1.0580087    
     41000   297.708        592.39181      53557.969     -21331.762      3330.4535     -18001.309      1.0651535    
     42000   304.85306     -342.79195      53889.939     -21285.053      3410.3851     -17874.668      1.058592     
     43000   292.57754     -43.135704      53775.807     -21322.745      3273.0592     -18049.686      1.0608387    
     44000   295.42401      126.815        53842.928     -21180.05       3304.9025     -17875.147      1.0595162    
     45000   302.25658      12.361174      53632.632     -21347.826      3381.3383     -17966.487      1.0636707    
     46000   303.46845      555.00818      53626.89      -21193.144      3394.8956     -17798.248      1.0637846    
     47000   300.29775      160.90302      53722.249     -21173.932      3359.425      -17814.507      1.0618963    
     48000   305.46561      740.80223      53756.171     -21189.007      3417.2377     -17771.769      1.0612262    
     49000   295.37357     -292.92427      54685.772     -21323.315      3304.3383     -18018.976      1.0431865    
     50000   296.86222     -126.87797      54028.883     -21303.848      3320.9917     -17982.856      1.0558697    
     50010   295.71246      191.55164      54018.841     -21270.753      3308.1295     -17962.624      1.0560659    
Loop time of 1045.17 on 5 procs for 25000 steps with 5541 atoms

Performance: 4.133 ns/day, 5.806 hours/ns, 23.920 timesteps/s, 132.538 katom-step/s
347.9% CPU use with 1 MPI tasks x 5 OpenMP threads

MPI task timing breakdown:
Section |  min time  |  avg time  |  max time  |%varavg| %total
---------------------------------------------------------------
Pair    | 43.561     | 43.561     | 43.561     |   0.0 |  4.17
Bond    | 0.43886    | 0.43886    | 0.43886    |   0.0 |  0.04
Kspace  | 541.39     | 541.39     | 541.39     |   0.0 | 51.80
Neigh   | 0.060041   | 0.060041   | 0.060041   |   0.0 |  0.01
Comm    | 11.124     | 11.124     | 11.124     |   0.0 |  1.06
Output  | 0.014825   | 0.014825   | 0.014825   |   0.0 |  0.00
Modify  | 444.11     | 444.11     | 444.11     |   0.0 | 42.49
Other   |            | 4.478      |            |       |  0.43

Nlocal:           5541 ave        5541 max        5541 min
Histogram: 1 0 0 0 0 0 0 0 0 0
Nghost:          35749 ave       35749 max       35749 min
Histogram: 1 0 0 0 0 0 0 0 0 0
Neighs:              0 ave           0 max           0 min
Histogram: 1 0 0 0 0 0 0 0 0 0

Total # of neighbors = 0
Ave neighs/atom = 0
Ave special neighs/atom = 2.4872767
Neighbor list builds = 2327
Dangerous builds = 0
System init for write_restart ...
PPPM initialization ...
  extracting TIP4P info from pair style
  using 12-bit tables for long-range coulomb
  G vector (1/distance) = 0.28840746
  grid = 50 50 50
  stencil order = 5
  estimated absolute RMS force accuracy = 0.00032829345
  estimated relative force accuracy = 9.8864598e-07
  using double precision FFTW3
  3d grid and FFT values/proc = 205379 125000


---------------------------------------------------------------------
      Device Time Info (average): 
---------------------------------------------------------------------
Data Transfer:   3.2496 s.
Neighbor copy:   0.5859 s.
Neighbor build:  5.0631 s.
Force calc:      90.1594 s.
Device Overhead: 7.5314 s.
CPU Neighbor:    1.9134 s.
CPU Cast/Pack:   7.8210 s.
CPU Driver_Time: 0.7770 s.
CPU Idle_Time:   0.2847 s.
Average split:   1.0000.
Max Mem / Proc:  246.35 MB.
Prefetch mode:   None.
Vector width:    32.
Lanes / atom:    8.
Pair block:      256.
Neigh block:     128.
Neigh mode:      Hybrid (binning on host) with subgroup support
---------------------------------------------------------------------


--------------------------------------------------------------------------
- Using acceleration for lj/cut/tip4p/long/gpu:
-  with 1 proc(s) per device.
-  with 5 thread(s) per proc.
-  Horizontal vector operations: ENABLED
-  Shared memory system: No
--------------------------------------------------------------------------
Device 0: Quadro RTX 6000, 72 CUs, 20/23 GB, 1.8 GHZ (Mixed Precision)
--------------------------------------------------------------------------

Initializing Device and compiling on process 0...Done.
Initializing Device 0 on core 0...Done.

Generated 0 of 3 mixed pair_coeff terms from geometric mixing rule
System init for write_data ...
PPPM initialization ...
  extracting TIP4P info from pair style
  using 12-bit tables for long-range coulomb
  G vector (1/distance) = 0.28840746
  grid = 50 50 50
  stencil order = 5
  estimated absolute RMS force accuracy = 0.00032829345
  estimated relative force accuracy = 9.8864598e-07
  using double precision FFTW3
  3d grid and FFT values/proc = 205379 125000

--------------------------------------------------------------------------
- Using acceleration for lj/cut/tip4p/long/gpu:
-  with 1 proc(s) per device.
-  with 5 thread(s) per proc.
-  Horizontal vector operations: ENABLED
-  Shared memory system: No
--------------------------------------------------------------------------
Device 0: Quadro RTX 6000, 72 CUs, 20/23 GB, 1.8 GHZ (Mixed Precision)
--------------------------------------------------------------------------

Initializing Device and compiling on process 0...Done.
Initializing Device 0 on core 0...Done.

Generated 0 of 3 mixed pair_coeff terms from geometric mixing rule
WARNING: Not all mixed pair coeffs generated from mixing. Use write_data with 'pair ij' option to store all pair coeffs. (src/write_data.cpp:364)

Pre-equilibration complete:
  Density:  1.05606592793359 g/cm≥
  Pressure: 191.551637519432 atm
  Volume:   54018.8411606295 Ö≥
úì Checkpoint 2 PASSED: System stable at 100 atm

===== STAGE 2: Gentle Pressure Ramp (100 ps, GPU) =====
Ramping pressure from 100 atm Üí 1 atm with drag damping

COMPARISON TO FAILED VERSION:
  OLD: 50 atm Üí 1 atm, no pre-equil Üí 169,712 atm spike at step 51k
  NEW: 100 atm Üí 1 atm, with pre-equil Üí should be smooth (< 500 atm max)
PPPM initialization ...
  extracting TIP4P info from pair style
  using 12-bit tables for long-range coulomb
  G vector (1/distance) = 0.28840746
  grid = 50 50 50
  stencil order = 5
  estimated absolute RMS force accuracy = 0.00032829345
  estimated relative force accuracy = 9.8864598e-07
  using double precision FFTW3
  3d grid and FFT values/proc = 205379 125000

--------------------------------------------------------------------------
- Using acceleration for lj/cut/tip4p/long/gpu:
-  with 1 proc(s) per device.
-  with 5 thread(s) per proc.
-  Horizontal vector operations: ENABLED
-  Shared memory system: No
--------------------------------------------------------------------------
Device 0: Quadro RTX 6000, 72 CUs, 20/23 GB, 1.8 GHZ (Mixed Precision)
--------------------------------------------------------------------------

Initializing Device and compiling on process 0...Done.
Initializing Device 0 on core 0...Done.

Generated 0 of 3 mixed pair_coeff terms from geometric mixing rule
Setting up Verlet run ...
  Unit style    : real
  Current step  : 50010
  Time step     : 2
Per MPI rank memory allocation (min/avg/max) = 52.14 | 52.14 | 52.14 Mbytes
   Step          Temp          Press          Volume         PotEng         KinEng         TotEng        Density    
     50010   295.71246      182.16952      54018.841     -21270.739      3308.1295     -17962.61       1.0560659    
     50500   300.03632      464.49967      53952.643     -21323.197      3356.5004     -17966.697      1.0573617    
     51000   302.05199     -689.7392       54050.74      -21279.14       3379.0496     -17900.09       1.0554427    
     51500   300.6882       60.95992       53917.93      -21281.532      3363.793      -17917.739      1.0580424    
     52000   294.32745      643.73525      54191.189     -21238.845      3292.6354     -17946.21       1.0527072    
     52500   300.58475     -41.370951      54336.34      -21316.053      3362.6356     -17953.418      1.0498951    
     53000   303.10071      223.75416      53789.272     -21340.465      3390.7816     -17949.683      1.0605731    
     53500   303.20149     -299.74283      53961.505     -21268.841      3391.909      -17876.932      1.057188     
     54000   298.38917     -205.13999      54200.964     -21279.381      3338.0737     -17941.307      1.0525174    
     54500   301.83673     -784.53987      54242.569     -21353.966      3376.6415     -17977.325      1.0517101    
     55000   297.40519     -313.21454      54293.038     -21313.261      3327.066      -17986.195      1.0507325    
     55500   298.96801      151.50352      54352.323     -21335.719      3344.5492     -17991.17       1.0495864    
     56000   301.07146     -320.14581      54059.201     -21297.527      3368.0805     -17929.446      1.0552775    
     56500   301.38444      1762.1253      53919.959     -21247.086      3371.5818     -17875.504      1.0580026    
     57000   298.46882     -884.00732      54026.652     -21220.063      3338.9648     -17881.098      1.0559132    
     57500   306.92773      204.53732      53830.446     -21387.498      3433.5944     -17953.904      1.0597619    
     58000   298.0096      -642.5097       54152.484     -21261.091      3333.8274     -17927.263      1.0534597    
     58500   299.01079      526.00685      53843.859     -21279.419      3345.0278     -17934.392      1.0594979    
     59000   302.66451     -619.13747      53623.679     -21339.928      3385.9019     -17954.026      1.0638483    
     59500   298.17056      41.857558      53894.674     -21266.071      3335.6281     -17930.442      1.058499     
     60000   299.51545     -68.839277      53962.187     -21244.798      3350.6734     -17894.124      1.0571747    
     60500   304.47828     -327.14504      53830.915     -21296.51       3406.1924     -17890.318      1.0597527    
     61000   302.72367     -69.122062      54198.248     -21263.382      3386.5637     -17876.819      1.0525702    
     61500   302.35573     -602.71202      54064.54      -21270.282      3382.4476     -17887.834      1.0551733    
     62000   302.04601     -385.13273      54110.238     -21314.059      3378.9827     -17935.077      1.0542821    
     62500   299.19348     -98.248936      54096.15      -21272.029      3347.0715     -17924.958      1.0545567    
     63000   291.042        889.88716      53971.123     -21155.794      3255.8811     -17899.913      1.0569996    
     63500   300.10194      388.93521      54147.268     -21295.428      3357.2344     -17938.194      1.0535611    
     64000   296.07266     -264.53761      54241.838     -21224.939      3312.159      -17912.78       1.0517243    
     64500   300.42293     -777.36257      54252.701     -21221.1        3360.8253     -17860.275      1.0515137    
     65000   305.83716      344.40317      53625.637     -21282.618      3421.3942     -17861.223      1.0638094    
     65500   295.45992     -333.46877      53774.746     -21251.447      3305.3042     -17946.143      1.0608596    
     66000   300.15462      94.534037      53780.274     -21359.063      3357.8238     -18001.239      1.0607506    
     66500   298.78473     -420.02484      54319.796     -21313.076      3342.4989     -17970.577      1.0502149    
     67000   300.01186     -280.5291       54213.091     -21299.354      3356.2267     -17943.127      1.052282     
     67500   295.65427     -537.28123      54395.873     -21237.24       3307.4785     -17929.761      1.0487461    
     68000   298.1636      -103.69605      54129.231     -21281.038      3335.5503     -17945.488      1.0539122    
     68500   299.99967     -452.68141      54422.332     -21320.838      3356.0904     -17964.748      1.0482362    
     69000   300.36397      518.58392      54033.783     -21294.612      3360.1658     -17934.446      1.0557739    
     69500   295.20994      464.17866      54175.945     -21210.634      3302.5077     -17908.126      1.0530035    
     70000   300.77158      92.907281      54156.508     -21290.325      3364.7257     -17925.599      1.0533814    
     70500   305.90076     -245.68092      54026.803     -21313.387      3422.1057     -17891.281      1.0559103    
     71000   302.28126     -184.49158      54383.047     -21288.396      3381.6144     -17906.782      1.0489934    
     71500   302.22908     -330.53713      54152.736     -21293.797      3381.0307     -17912.766      1.0534548    
     72000   293.3144       129.4796       54294.986     -21221.591      3281.3024     -17940.289      1.0506948    
     72500   298.16922      510.15646      54033.437     -21263.313      3335.6131     -17927.7        1.0557807    
     73000   298.41875      162.8568       54330.903     -21231.445      3338.4046     -17893.041      1.0500002    
     73500   301.21291      611.39773      54124.588     -21315.38       3369.6629     -17945.717      1.0540026    
     74000   297.54115     -332.89227      54292.947     -21227.606      3328.5869     -17899.019      1.0507342    
     74500   294.41544      447.66047      54350.377     -21205.432      3293.6197     -17911.813      1.049624     
     75000   300.48714     -692.82645      54152.452     -21278.522      3361.5437     -17916.978      1.0534603    
     75500   299.06322      55.763829      53982.219     -21303.825      3345.6143     -17958.211      1.0567824    
     76000   294.20393      484.35236      54542.793     -21242.564      3291.2535     -17951.31       1.0459211    
     76500   298.42934      520.70689      54058.259     -21278.012      3338.5231     -17939.489      1.0552959    
     77000   300.23021     -368.30253      54219.695     -21326.894      3358.6694     -17968.225      1.0521538    
     77500   302.09581      343.46474      53790.007     -21355.68       3379.5399     -17976.14       1.0605587    
     78000   302.86086      240.32981      54015.95      -21359.932      3388.0985     -17971.834      1.0561225    
     78500   296.28996      287.10412      54362.151     -21294.617      3314.5899     -17980.027      1.0493966    
     79000   303.12715      1398.4332      53862.572     -21367.227      3391.0774     -17976.149      1.0591298    
     79500   300.98131      609.1302       53934.722     -21385.483      3367.0719     -18018.411      1.057713     
     80000   298.07347      77.640336      54103.429     -21287.962      3334.542      -17953.42       1.0544148    
     80500   301.74025     -227.62888      54182.102     -21374.942      3375.5622     -17999.38       1.0528838    
     81000   295.61074      305.53483      54219.07      -21297.022      3306.9914     -17990.03       1.0521659    
     81500   294.80752     -442.94075      53961.79      -21241.019      3298.0059     -17943.013      1.0571825    
     82000   298.86832      100.51655      53893.729     -21262.896      3343.434      -17919.462      1.0585175    
     82500   305.73838     -1000.7671      53979.224     -21312.472      3420.2892     -17892.183      1.056841     
     83000   295.74227     -317.7407       53968.641     -21216.394      3308.4629     -17907.931      1.0570482    
     83500   298.95801     -425.71994      54063.878     -21213.771      3344.4373     -17869.334      1.0551862    
     84000   298.43173      834.56243      54030.782     -21220.228      3338.5498     -17881.678      1.0558325    
     84500   298.01396      102.89921      54172.96      -21259.94       3333.8763     -17926.063      1.0530615    
     85000   303.11359      616.29791      54152.93      -21317.68       3390.9257     -17926.754      1.053451     
     85500   299.05469     -634.79451      53945.759     -21277.601      3345.5189     -17932.082      1.0574966    
     86000   302.84845      363.69875      54010.183     -21264.275      3387.9596     -17876.315      1.0562352    
     86500   301.50279      430.11985      54446.449     -21253.283      3372.9057     -17880.378      1.0477719    
     87000   297.60467      264.37318      54856.875     -21244.388      3329.2976     -17915.091      1.0399327    
     87500   297.62674      852.59257      54618.929     -21226.634      3329.5444     -17897.089      1.0444631    
     88000   310.8734       606.89426      54320.848     -21380.02       3477.7345     -17902.285      1.0501945    
     88500   303.06976     -60.000666      54340.181     -21334.59       3390.4354     -17944.154      1.0498209    
     89000   297.75281      294.85584      54611.595     -21268.456      3330.9548     -17937.501      1.0446034    
     89500   303.94685      87.668561      54202.827     -21324.295      3400.2474     -17924.048      1.0524812    
     90000   295.12393     -274.71777      54267.055     -21311.195      3301.5455     -18009.65       1.0512356    
     90500   303.22849      539.73317      53987.66      -21373.494      3392.211      -17981.283      1.0566759    
     91000   299.68991     -783.14151      53969.946     -21243.43       3352.625      -17890.805      1.0570227    
     91500   302.59807      792.75717      53665.975     -21289.444      3385.1586     -17904.286      1.0630098    
     92000   298.1932       636.99002      53832.121     -21229.773      3335.8814     -17893.891      1.059729     
     92500   295.24964     -476.82662      54162.928     -21244.583      3302.9518     -17941.632      1.0532565    
     93000   300.91092     -518.43098      53947.087     -21280.612      3366.2845     -17914.328      1.0574706    
     93500   298.09588     -38.801879      54063.979     -21306.852      3334.7927     -17972.059      1.0551842    
     94000   301.9572      -183.49791      54401.744     -21303.08       3377.9892     -17925.09       1.0486329    
     94500   303.39671      104.9326       54155.898     -21301.059      3394.093      -17906.966      1.0533932    
     95000   296.18626     -261.43809      54224.899     -21185.428      3313.4298     -17871.998      1.0520528    
     95500   300.34189      75.022825      54135.493     -21255.559      3359.9187     -17895.64       1.0537903    
     96000   297.11288     -528.30719      54256.434     -21189.064      3323.7959     -17865.268      1.0514413    
     96500   303.04893      264.7522       54022.923     -21255.672      3390.2023     -17865.47       1.0559861    
     97000   300.65898      74.514263      53993.76      -21231.877      3363.466      -17868.411      1.0565565    
     97500   302.64099      78.141408      53565.007     -21264.595      3385.6387     -17878.956      1.0650135    
     98000   298.88218      640.72233      53752.166     -21230.57       3343.589      -17886.981      1.0613053    
     98500   300.94481     -153.59088      53909.83      -21265.885      3366.6636     -17899.221      1.0582014    
     99000   292.40076      856.55586      53843.455     -21158.982      3271.0815     -17887.901      1.0595059    
     99500   299.06686     -20.731184      54194.584     -21215.736      3345.655      -17870.082      1.0526413    
    100000   295.84573     -21.122594      54624.88      -21204.355      3309.6203     -17894.734      1.0443493    
    100010   298.93236      93.547237      54619.82      -21238.609      3344.1504     -17894.459      1.0444461    
Loop time of 2119.26 on 5 procs for 50000 steps with 5541 atoms

Performance: 4.077 ns/day, 5.887 hours/ns, 23.593 timesteps/s, 130.730 katom-step/s
346.5% CPU use with 1 MPI tasks x 5 OpenMP threads

MPI task timing breakdown:
Section |  min time  |  avg time  |  max time  |%varavg| %total
---------------------------------------------------------------
Pair    | 88.895     | 88.895     | 88.895     |   0.0 |  4.19
Bond    | 0.87046    | 0.87046    | 0.87046    |   0.0 |  0.04
Kspace  | 1110.5     | 1110.5     | 1110.5     |   0.0 | 52.40
Neigh   | 0.12146    | 0.12146    | 0.12146    |   0.0 |  0.01
Comm    | 22.503     | 22.503     | 22.503     |   0.0 |  1.06
Output  | 0.056934   | 0.056934   | 0.056934   |   0.0 |  0.00
Modify  | 887.37     | 887.37     | 887.37     |   0.0 | 41.87
Other   |            | 8.983      |            |       |  0.42

Nlocal:           5541 ave        5541 max        5541 min
Histogram: 1 0 0 0 0 0 0 0 0 0
Nghost:          35455 ave       35455 max       35455 min
Histogram: 1 0 0 0 0 0 0 0 0 0
Neighs:              0 ave           0 max           0 min
Histogram: 1 0 0 0 0 0 0 0 0 0

Total # of neighbors = 0
Ave neighs/atom = 0
Ave special neighs/atom = 2.4872767
Neighbor list builds = 4636
Dangerous builds = 0
System init for write_restart ...
PPPM initialization ...
  extracting TIP4P info from pair style
  using 12-bit tables for long-range coulomb
  G vector (1/distance) = 0.28821242
  grid = 50 50 50
  stencil order = 5
  estimated absolute RMS force accuracy = 0.00033176837
  estimated relative force accuracy = 9.991106e-07
  using double precision FFTW3
  3d grid and FFT values/proc = 205379 125000


---------------------------------------------------------------------
      Device Time Info (average): 
---------------------------------------------------------------------
Data Transfer:   6.5431 s.
Neighbor copy:   1.1730 s.
Neighbor build:  9.9440 s.
Force calc:      186.9928 s.
Device Overhead: 1.6789 s.
CPU Neighbor:    3.9006 s.
CPU Cast/Pack:   15.4105 s.
CPU Driver_Time: 1.5281 s.
CPU Idle_Time:   0.5640 s.
Average split:   1.0000.
Max Mem / Proc:  140.68 MB.
Prefetch mode:   None.
Vector width:    32.
Lanes / atom:    8.
Pair block:      256.
Neigh block:     128.
Neigh mode:      Hybrid (binning on host) with subgroup support
---------------------------------------------------------------------


--------------------------------------------------------------------------
- Using acceleration for lj/cut/tip4p/long/gpu:
-  with 1 proc(s) per device.
-  with 5 thread(s) per proc.
-  Horizontal vector operations: ENABLED
-  Shared memory system: No
--------------------------------------------------------------------------
Device 0: Quadro RTX 6000, 72 CUs, 20/23 GB, 1.8 GHZ (Mixed Precision)
--------------------------------------------------------------------------

Initializing Device and compiling on process 0...Done.
Initializing Device 0 on core 0...Done.

Generated 0 of 3 mixed pair_coeff terms from geometric mixing rule
System init for write_data ...
PPPM initialization ...
  extracting TIP4P info from pair style
  using 12-bit tables for long-range coulomb
  G vector (1/distance) = 0.28821242
  grid = 50 50 50
  stencil order = 5
  estimated absolute RMS force accuracy = 0.00033176837
  estimated relative force accuracy = 9.991106e-07
  using double precision FFTW3
  3d grid and FFT values/proc = 205379 125000

--------------------------------------------------------------------------
- Using acceleration for lj/cut/tip4p/long/gpu:
-  with 1 proc(s) per device.
-  with 5 thread(s) per proc.
-  Horizontal vector operations: ENABLED
-  Shared memory system: No
--------------------------------------------------------------------------
Device 0: Quadro RTX 6000, 72 CUs, 20/23 GB, 1.8 GHZ (Mixed Precision)
--------------------------------------------------------------------------

Initializing Device and compiling on process 0...Done.
Initializing Device 0 on core 0...Done.

Generated 0 of 3 mixed pair_coeff terms from geometric mixing rule
WARNING: Not all mixed pair coeffs generated from mixing. Use write_data with 'pair ij' option to store all pair coeffs. (src/write_data.cpp:364)

Pressure ramp complete:
  Density:  1.04444609913748 g/cm≥
  Pressure: 93.5472370020522 atm
  Volume:   54619.8196951554 Ö≥
  Box size: 37.9416972259937 Ö
úì Checkpoint 3 PASSED: Pressure ramp successful, liquid phase maintained

===== STAGE 3: NPT Equilibration (1000 ps, GPU) =====
Equilibrating at 300K, 1 atm with improved pressure control

Strategy:
  Phase 1 (400 ps): Higher damping for gentle pressure equilibration
  Phase 2 (600 ps): Standard damping for final equilibration

Phase 1: Gentle pressure equilibration (400 ps, pdamp=5000)...
PPPM initialization ...
  extracting TIP4P info from pair style
  using 12-bit tables for long-range coulomb
  G vector (1/distance) = 0.28821242
  grid = 50 50 50
  stencil order = 5
  estimated absolute RMS force accuracy = 0.00033176837
  estimated relative force accuracy = 9.991106e-07
  using double precision FFTW3
  3d grid and FFT values/proc = 205379 125000

--------------------------------------------------------------------------
- Using acceleration for lj/cut/tip4p/long/gpu:
-  with 1 proc(s) per device.
-  with 5 thread(s) per proc.
-  Horizontal vector operations: ENABLED
-  Shared memory system: No
--------------------------------------------------------------------------
Device 0: Quadro RTX 6000, 72 CUs, 20/23 GB, 1.8 GHZ (Mixed Precision)
--------------------------------------------------------------------------

Initializing Device and compiling on process 0...Done.
Initializing Device 0 on core 0...Done.

Generated 0 of 3 mixed pair_coeff terms from geometric mixing rule
Setting up Verlet run ...
  Unit style    : real
  Current step  : 100010
  Time step     : 2
Per MPI rank memory allocation (min/avg/max) = 52.14 | 52.14 | 52.14 Mbytes
   Step          Temp          Press          Volume         PotEng         KinEng         TotEng        Density    
    100010   298.93236      89.175258      54619.82      -21238.555      3344.1504     -17894.405      1.0444461    
    101000   298.56725      33.503872      53942.707     -21261.199      3340.0659     -17921.133      1.0575565    
    102000   301.67735     -9.2081273      53513.644     -21383.07       3374.8585     -18008.212      1.0660357    
    103000   298.33382      150.32273      53984.119     -21229.709      3337.4545     -17892.255      1.0567452    
    104000   300.81573     -609.68284      54035.61      -21218.99       3365.2196     -17853.77       1.0557382    
    105000   296.68262      361.83782      54246.814     -21232.572      3318.9826     -17913.589      1.0516278    
    106000   297.72778     -906.94709      53939.279     -21349.618      3330.6748     -18018.943      1.0576237    
    107000   300.4529       43.904636      54042.337     -21184.766      3361.1606     -17823.606      1.0556068    
    108000   298.99841     -502.28362      54569.851     -21215.914      3344.8893     -17871.025      1.0454025    
    109000   303.8633      -128.81396      54278.429     -21201.504      3399.3126     -17802.191      1.0510153    
    110000   299.12871      671.10963      54108.594     -21393.23       3346.347      -18046.883      1.0543142    
    111000   298.86253      0.11274055     54047.9       -21282.144      3343.3692     -17938.775      1.0554981    
    112000   305.93155      1223.8858      54142.576     -21192.231      3422.4502     -17769.781      1.0536525    
    113000   298.6032      -301.96323      54420.404     -21195.036      3340.4681     -17854.568      1.0482733    
    114000   303.47695     -468.67768      54289.043     -21269.699      3394.9906     -17874.708      1.0508098    
    115000   302.09638     -824.91738      54196.927     -21165.736      3379.5462     -17786.189      1.0525958    
    116000   300.78405      383.03906      53816.6       -21159.445      3364.8651     -17794.58       1.0600346    
    117000   296.56316      4.980283       54121.357     -21361.471      3317.6462     -18043.825      1.0540655    
    118000   300.28676     -313.12872      54312.295     -21264.887      3359.302      -17905.585      1.0503599    
    119000   293.41546      102.99219      53806.741     -21229.739      3282.4329     -17947.306      1.0602288    
    120000   293.51153     -237.17353      54294.628     -21340.056      3283.5076     -18056.549      1.0507017    
    121000   311.19811     -278.30478      54093.399     -21177.748      3481.3671     -17696.381      1.0546103    
    122000   299.94729      531.59696      54179.458     -21195.62       3355.5044     -17840.115      1.0529352    
    123000   305.23851      101.28959      54393.282     -21180.084      3414.6972     -17765.387      1.048796     
    124000   303.00785      1104.4977      53753.481     -21239.36       3389.7428     -17849.617      1.0612793    
    125000   297.85747     -24.877525      54494.227     -21292.397      3332.1256     -17960.271      1.0468532    
    126000   300.74225      775.68067      53958.089     -21221.687      3364.3976     -17857.289      1.057255     
    127000   296.65487      112.73721      54030.435     -21277.272      3318.6722     -17958.6        1.0558393    
    128000   302.42719     -306.81846      53968.121     -21324.95       3383.247      -17941.703      1.0570584    
    129000   306.57485     -473.49126      54349.446     -21313.689      3429.6468     -17884.042      1.0496419    
    130000   297.88109     -340.34797      54433.929     -21275.991      3332.3898     -17943.601      1.0480129    
    131000   303.44175      123.67768      54264.502     -21290.113      3394.5968     -17895.517      1.051285     
    132000   290.76406     -974.89809      55037.214     -21214.219      3252.7717     -17961.448      1.0365252    
    133000   302.8712      -697.0888       54375.187     -21285.145      3388.214      -17896.931      1.049145     
    134000   303.93423     -340.78352      53841.538     -21313.65       3400.1061     -17913.544      1.0595436    
    135000   297.40632      198.751        53803.759     -21342.656      3327.0786     -18015.577      1.0602876    
    136000   299.62056     -44.762767      54231.521     -21200.835      3351.8492     -17848.986      1.0519243    
    137000   294.48625      89.558342      53835.547     -21317.231      3294.4119     -18022.819      1.0596615    
    138000   302.16955      169.4811       54419.884     -21275.266      3380.3647     -17894.901      1.0482833    
    139000   300.12713      183.46048      54254.672     -21217.284      3357.5162     -17859.767      1.0514755    
    140000   295.40372      157.39971      54293.12      -21185.845      3304.6756     -17881.169      1.0507309    
    141000   307.0382       5.6447619      54535.651     -21241.874      3434.8302     -17807.043      1.0460581    
    142000   297.44195     -14.289551      54631.941     -21254.34       3327.4772     -17926.863      1.0442144    
    143000   296.89542     -597.45506      54170.507     -21220.264      3321.3631     -17898.9        1.0531092    
    144000   300.14559      60.932733      54278.341     -21262.005      3357.7228     -17904.282      1.051017     
    145000   299.12574     -346.40292      54117.905     -21314.687      3346.3137     -17968.373      1.0541328    
    146000   297.41167     -54.714662      54122.596     -21315.393      3327.1385     -17988.254      1.0540414    
    147000   302.50291      155.89766      54688.436     -21312.882      3384.0941     -17928.788      1.0431356    
    148000   298.06476      528.25302      54558.936     -21282.821      3334.4445     -17948.377      1.0456116    
    149000   298.27184      623.90174      53634.313     -21280.655      3336.7611     -17943.894      1.0636373    
    150000   299.76626      591.09297      54163.549     -21222.314      3353.4792     -17868.835      1.0532445    
    151000   297.90239     -909.2487       54570.149     -21271.578      3332.6281     -17938.95       1.0453968    
    152000   303.21027     -717.11252      54032.874     -21236.118      3392.0073     -17844.111      1.0557917    
    153000   293.90869      258.76422      54027.27      -21334.931      3287.9506     -18046.98       1.0559012    
    154000   302.92579      77.77352       54515.995     -21235.962      3388.8248     -17847.137      1.0464352    
    155000   300.87966     -110.01678      54295.707     -21336.443      3365.9348     -17970.509      1.0506808    
    156000   301.83121      109.96047      54134.089     -21220.454      3376.5798     -17843.875      1.0538176    
    157000   300.71902     -222.29293      54015.38      -21231.792      3364.1377     -17867.654      1.0561336    
    158000   297.09235      14.851075      54233.355     -21327.432      3323.5662     -18003.866      1.0518888    
    159000   304.16415      194.09319      54528.772     -21328.116      3402.6782     -17925.438      1.04619      
    160000   303.0781      -108.70069      54789.952     -21230.388      3390.5286     -17839.859      1.0412029    
    161000   302.49599      673.63778      54009.427     -21323.863      3384.0166     -17939.847      1.05625      
    162000   297.09452      501.45457      54405.46      -21193.714      3323.5905     -17870.123      1.0485613    
    163000   303.93919     -39.904967      54498.586     -21144.258      3400.1617     -17744.096      1.0467695    
    164000   297.12565     -628.38135      54292.01      -21308.586      3323.9388     -17984.647      1.0507524    
    165000   293.12011     -20.395678      54100.738     -21200.8        3279.1288     -17921.671      1.0544673    
    166000   297.27047     -762.39039      53967.808     -21337.637      3325.5588     -18012.078      1.0570646    
    167000   297.85854      338.29791      53664.738     -21263.232      3332.1375     -17931.095      1.0630343    
    168000   308.52461      761.5678       53742.513     -21252.954      3451.4587     -17801.496      1.0614959    
    169000   293.83608     -523.73569      54228.332     -21255.995      3287.1384     -17968.857      1.0519862    
    170000   295.29707     -758.42848      54470.034     -21235.402      3303.4824     -17931.919      1.0473182    
    171000   298.10694      1161.6689      54114.451     -21148.138      3334.9164     -17813.222      1.0542001    
    172000   304.31545      941.67439      54518.753     -21203.161      3404.3709     -17798.79       1.0463823    
    173000   295.09108     -47.444271      54485.049     -21251.235      3301.1781     -17950.057      1.0470296    
    174000   298.6186      -1096.6867      54356.634     -21347.369      3340.6403     -18006.729      1.0495031    
    175000   293.95114     -303.33409      54606.735     -21395.288      3288.4255     -18106.863      1.0446964    
    176000   296.25988      388.18581      53632.394     -21293.226      3314.2534     -17978.973      1.0636754    
    177000   298.93074     -137.72009      54093.32      -21337.682      3344.1322     -17993.549      1.0546119    
    178000   299.88512      215.98027      54631.874     -21384.776      3354.8089     -18029.967      1.0442157    
    179000   296.91774      221.58937      54541.02      -21239.835      3321.6129     -17918.222      1.0459551    
    180000   297.68025     -128.77988      54357.983     -21231.458      3330.143      -17901.315      1.0494771    
    181000   299.13254     -840.55322      54536.908     -21286.955      3346.3897     -17940.565      1.046034     
    182000   297.63695      517.47805      54112.704     -21223.041      3329.6587     -17893.382      1.0542341    
    183000   294.5109      -452.70493      54537.556     -21195.007      3294.6876     -17900.319      1.0460215    
    184000   297.80175     -506.40246      54099.25      -21330.547      3331.5023     -17999.045      1.0544963    
    185000   298.55793     -123.10679      54135.856     -21285.552      3339.9616     -17945.59       1.0537832    
    186000   304.14825     -292.01172      54350.621     -21283.82       3402.5004     -17881.32       1.0496192    
    187000   302.87402     -288.53252      54120.429     -21325.802      3388.2456     -17937.556      1.0540836    
    188000   297.03729      65.719726      54195.835     -21243.647      3322.9502     -17920.697      1.052617     
    189000   293.50562     -668.0938       54084.834     -21267.017      3283.4416     -17983.575      1.0547773    
    190000   301.70426     -248.14306      53953.779     -21327.026      3375.1595     -17951.867      1.0573394    
    191000   303.10096      184.74018      54245.653     -21362.098      3390.7845     -17971.314      1.0516503    
    192000   297.88645      31.582426      54177.508     -21226.611      3332.4497     -17894.161      1.0529731    
    193000   295.6366       25.959687      53766.865     -21232.584      3307.2807     -17925.304      1.0610151    
    194000   304.76687      229.26977      54243.672     -21346.222      3409.4209     -17936.801      1.0516887    
    195000   305.76278      525.53959      54237.101     -21317.25       3420.5622     -17896.688      1.0518161    
    196000   305.74935     -553.23867      54494.011     -21259.081      3420.4119     -17838.669      1.0468574    
    197000   293.82842      200.47505      54064.534     -21300.6        3287.0527     -18013.547      1.0551734    
    198000   296.89849      467.95202      53893.274     -21270.647      3321.3975     -17949.249      1.0585265    
    199000   297.97487      222.09782      54423.177     -21129.534      3333.439      -17796.095      1.0482199    
    200000   308.41002      502.36466      54547.524     -21194.881      3450.1768     -17744.704      1.0458304    
    201000   294.06597     -633.54755      54940.641     -21271.537      3289.7102     -17981.827      1.0383472    
    202000   290.67899      448.34881      54521.285     -21354.344      3251.8201     -18102.524      1.0463337    
    203000   295.69291     -63.087422      53847.338     -21160.976      3307.9107     -17853.065      1.0594295    
    204000   296.39638     -485.98515      54777.725     -21189.493      3315.7804     -17873.713      1.0414353    
    205000   301.17548     -405.15706      54864.459     -21341.999      3369.2441     -17972.755      1.0397889    
    206000   298.12245     -765.48987      53939.115     -21281.865      3335.09       -17946.775      1.0576269    
    207000   305.42896      483.13213      54135.124     -21242.017      3416.8277     -17825.189      1.0537975    
    208000   294.46253      117.03575      54248.998     -21249.626      3294.1465     -17955.48       1.0515855    
    209000   306.34058      1232.9248      53664.524     -21224.572      3427.026      -17797.546      1.0630385    
    210000   306.86264      72.083812      54199.938     -21270.255      3432.8662     -17837.389      1.0525373    
    211000   302.88481     -317.26495      54367.332     -21327.624      3388.3664     -17939.257      1.0492966    
    212000   298.38058     -342.70185      54023.589     -21252.062      3337.9776     -17914.084      1.0559731    
    213000   305.8508       256.08976      54313.88      -21341.207      3421.5468     -17919.66       1.0503293    
    214000   302.24159     -852.65553      55058.412     -21227.744      3381.1706     -17846.574      1.0361261    
    215000   298.4804      -1230.2347      54733.039     -21135.51       3339.0943     -17796.415      1.0422856    
    216000   298.19107      500.20059      54211.482     -21152.85       3335.8576     -17816.993      1.0523132    
    217000   299.37725     -402.21063      54281.463     -21369.531      3349.1273     -18020.404      1.0509565    
    218000   304.11642      770.92354      53765.641     -21150.872      3402.1444     -17748.727      1.0610393    
    219000   295.78807     -317.15195      54250.907     -21358.164      3308.9752     -18049.188      1.0515485    
    220000   299.68638     -278.60187      54364.305     -21136.456      3352.5856     -17783.87       1.049355     
    221000   299.97298     -54.281986      53481.006     -21278.073      3355.7917     -17922.281      1.0666863    
    222000   294.04894     -1157.0506      54267.523     -21268.176      3289.5196     -17978.656      1.0512265    
    223000   296.95347     -577.25289      54265.929     -21283.393      3322.0126     -17961.381      1.0512574    
    224000   300.69062     -339.92873      54198.181     -21239.696      3363.82       -17875.876      1.0525714    
    225000   303.66219      808.41244      54064.926     -21308.941      3397.0629     -17911.878      1.0551657    
    226000   294.55741      197.44304      54294.088     -21242.638      3295.2079     -17947.43       1.0507122    
    227000   296.4749       106.76838      54298.797     -21324.614      3316.6588     -18007.955      1.050621     
    228000   301.28067      383.45391      53842.547     -21231.12       3370.4208     -17860.699      1.0595238    
    229000   297.08892      782.12033      53778.809     -21324.512      3323.5279     -18000.985      1.0607795    
    230000   294.47246     -177.29812      53988.214     -21241.475      3294.2576     -17947.217      1.056665     
    231000   301.71443      617.05416      54071.156     -21190.302      3375.2733     -17815.028      1.0550442    
    232000   299.35468      735.70348      54856.404     -21179.754      3348.8748     -17830.879      1.0399416    
    233000   295.49507     -582.90802      54232.743     -21362.121      3305.6975     -18056.423      1.0519007    
    234000   301.13142     -182.07578      54363.72      -21269.696      3368.7512     -17900.945      1.0493663    
    235000   303.0518       154.80305      54473.817     -21195.875      3390.2344     -17805.641      1.0472455    
    236000   289.85528      13.446533      53957.484     -21421.354      3242.6052     -18178.749      1.0572668    
    237000   303.46856     -145.66507      54439.864     -21291.208      3394.8968     -17896.311      1.0478986    
    238000   298.66781     -117.30137      54460.937     -21127.44       3341.1909     -17786.249      1.0474931    
    239000   297.90416     -9.9836425      54365.61      -21249.276      3332.6479     -17916.628      1.0493298    
    240000   298.05748      793.02003      54150.909     -21313.814      3334.3632     -17979.451      1.0534903    
    241000   297.36115     -278.34489      54239.71      -21235.383      3326.5732     -17908.81       1.0517655    
    242000   304.7708       9.8983853      54620.54      -21371.262      3409.4648     -17961.797      1.0444323    
    243000   298.14223      32.638861      54380.502     -21226.459      3335.3112     -17891.148      1.0490425    
    244000   302.01386     -389.34336      53936.929     -21259.681      3378.623      -17881.058      1.0576697    
    245000   294.62136      41.802237      54147.17      -21333.959      3295.9233     -18038.036      1.0535631    
    246000   306.22824      765.33212      54184.599     -21273.333      3425.7692     -17847.564      1.0528353    
    247000   300.86484      193.76555      53730.892     -21245.13       3365.769      -17879.361      1.0617255    
    248000   300.31615     -921.47143      54219.303     -21272.951      3359.6308     -17913.321      1.0521614    
    249000   300.43554      225.44216      54760.539     -21207.752      3360.9664     -17846.785      1.0417622    
    250000   300.71076     -153.96825      54308.905     -21265.717      3364.0453     -17901.671      1.0504255    
    251000   303.17759     -465.48279      54175.225     -21268.832      3391.6417     -17877.19       1.0530175    
    252000   301.68084      65.940892      54509.633     -21232.566      3374.8976     -17857.668      1.0465574    
    253000   303.15987     -534.17796      54529.025     -21208.365      3391.4435     -17816.922      1.0461852    
    254000   301.2117      -11.865749      54028.471     -21304.176      3369.6493     -17934.527      1.0558777    
    255000   301.3278       1156.5432      53911.752     -21248.598      3370.9481     -17877.649      1.0581637    
    256000   300.54351      319.00626      54413.866     -21162.505      3362.1743     -17800.331      1.0483993    
    257000   298.56472     -640.61043      54386.074     -21172.409      3340.0376     -17832.371      1.048935     
    258000   297.3745       29.176307      54056.192     -21221.135      3326.7226     -17894.412      1.0553362    
    259000   300.44414      879.94548      53579.182     -21278.806      3361.0626     -17917.743      1.0647318    
    260000   295.47661      112.55381      54080.526     -21304.32       3305.4909     -17998.829      1.0548614    
    261000   299.42221     -84.52432       54108.318     -21351.843      3349.6303     -18002.212      1.0543196    
    262000   304.92842      315.38186      53711.021     -21297.037      3411.2281     -17885.809      1.0621183    
    263000   298.34857      257.99098      54265.124     -21172.792      3337.6195     -17835.173      1.051273     
    264000   294.00624      253.82048      54403.664     -21249.458      3289.042      -17960.416      1.0485959    
    265000   304.21356      799.48769      54031.263     -21182.723      3403.231      -17779.492      1.0558231    
    266000   297.46387      97.8322        54592.672     -21239.473      3327.7224     -17911.75       1.0449655    
    267000   305.01662     -385.87925      54287.807     -21366.332      3412.2148     -17954.117      1.0508337    
    268000   299.53443      919.96878      53331.991     -21320.74       3350.8857     -17969.854      1.0696667    
    269000   303.01674     -128.57147      53902.499     -21259.39       3389.8422     -17869.548      1.0583453    
    270000   302.4913      -327.28844      54190.813     -21259.055      3383.9642     -17875.091      1.0527146    
    271000   301.92641      710.96529      53903.445     -21221.311      3377.6448     -17843.666      1.0583268    
    272000   293.48953     -135.62851      54063.696     -21341.149      3283.2616     -18057.887      1.0551897    
    273000   301.34468     -329.54803      53837.698     -21150.28       3371.1369     -17779.143      1.0596192    
    274000   303.48161      364.88133      53773.477     -21121.744      3395.0427     -17726.702      1.0608847    
    275000   298.7054       149.62836      54205.025     -21199.222      3341.6114     -17857.611      1.0524386    
    276000   296.04463      1570.0191      53767.791     -21456.154      3311.8454     -18144.308      1.0609969    
    277000   306.15056     -213.6564       54223.231     -21203.768      3424.9002     -17778.867      1.0520852    
    278000   297.75971      1229.6647      54450.708     -21265.19       3331.0319     -17934.158      1.0476899    
    279000   307.98543      1185.8728      53851.483     -21219.523      3445.4269     -17774.097      1.0593479    
    280000   299.84612     -66.04203       54267.405     -21265.889      3354.3726     -17911.516      1.0512288    
    281000   301.42169     -336.95565      54695.739     -21221.337      3371.9984     -17849.339      1.0429964    
    282000   292.40954     -1.9672946      54592.452     -21345.635      3271.1797     -18074.455      1.0449697    
    283000   302.22133     -504.32329      54142.59      -21355.335      3380.944      -17974.39       1.0536522    
    284000   292.64144      388.99057      53762.712     -21165.97       3273.774      -17892.195      1.0610971    
    285000   293.83849     -665.79471      54465.685     -21121.076      3287.1654     -17833.91       1.0474018    
    286000   303.05438      424.29376      54026.035     -21273.94       3390.2634     -17883.677      1.0559253    
    287000   293.09417     -191.7272       53872.107     -21275.965      3278.8387     -17997.126      1.0589424    
    288000   298.1272       428.50944      54365.222     -21159.045      3335.1431     -17823.902      1.0493373    
    289000   298.70724     -127.7583       54051.204     -21328.49       3341.6319     -17986.858      1.0554336    
    290000   296.68717     -371.10217      54393.898     -21119.146      3319.0335     -17800.113      1.0487841    
    291000   302.54489      1083.7812      54653.053     -21353.857      3384.5636     -17969.294      1.043811     
    292000   302.46431     -165.30173      54603.241     -21292.566      3383.6623     -17908.904      1.0447632    
    293000   304.58613     -106.34792      54254.583     -21200.899      3407.3989     -17793.5        1.0514772    
    294000   299.71884      519.2422       53642.661     -21259.16       3352.9487     -17906.212      1.0634718    
    295000   297.31095     -318.05299      54192.497     -21142.846      3326.0117     -17816.835      1.0526818    
    296000   297.72908     -929.14051      54690.725     -21185.837      3330.6893     -17855.148      1.043092     
    297000   298.91836      311.05092      54131.693     -21135.653      3343.9938     -17791.659      1.0538643    
    298000   297.56623      66.815709      53947.659     -21191.322      3328.8675     -17862.455      1.0574594    
    299000   304.57688     -120.3844       54055.304     -21310.8        3407.2955     -17903.504      1.0553536    
    300000   304.2656       543.26691      54259.094     -21269.382      3403.8132     -17865.568      1.0513898    
    300010   297.84284     -180.8579       54260.312     -21207.818      3331.962      -17875.856      1.0513662    
Loop time of 8518.89 on 5 procs for 200000 steps with 5541 atoms

Performance: 4.057 ns/day, 5.916 hours/ns, 23.477 timesteps/s, 130.087 katom-step/s
347.1% CPU use with 1 MPI tasks x 5 OpenMP threads

MPI task timing breakdown:
Section |  min time  |  avg time  |  max time  |%varavg| %total
---------------------------------------------------------------
Pair    | 358.7      | 358.7      | 358.7      |   0.0 |  4.21
Bond    | 3.5219     | 3.5219     | 3.5219     |   0.0 |  0.04
Kspace  | 4489.6     | 4489.6     | 4489.6     |   0.0 | 52.70
Neigh   | 0.48661    | 0.48661    | 0.48661    |   0.0 |  0.01
Comm    | 90.361     | 90.361     | 90.361     |   0.0 |  1.06
Output  | 0.88866    | 0.88866    | 0.88866    |   0.0 |  0.01
Modify  | 3539.5     | 3539.5     | 3539.5     |   0.0 | 41.55
Other   |            | 35.84      |            |       |  0.42

Nlocal:           5541 ave        5541 max        5541 min
Histogram: 1 0 0 0 0 0 0 0 0 0
Nghost:          35618 ave       35618 max       35618 min
Histogram: 1 0 0 0 0 0 0 0 0 0
Neighs:              0 ave           0 max           0 min
Histogram: 1 0 0 0 0 0 0 0 0 0

Total # of neighbors = 0
Ave neighs/atom = 0
Ave special neighs/atom = 2.4872767
Neighbor list builds = 18520
Dangerous builds = 0

Phase 1 complete:
  Density:  1.05136619442952 g/cm≥
  Pressure: -180.857896531037 atm

Phase 2: Final equilibration (600 ps, pdamp=2000)...
PPPM initialization ...
  extracting TIP4P info from pair style
  using 12-bit tables for long-range coulomb
  G vector (1/distance) = 0.28832886
  grid = 50 50 50
  stencil order = 5
  estimated absolute RMS force accuracy = 0.00032968959
  estimated relative force accuracy = 9.928504e-07
  using double precision FFTW3
  3d grid and FFT values/proc = 205379 125000


---------------------------------------------------------------------
      Device Time Info (average): 
---------------------------------------------------------------------
Data Transfer:   26.2176 s.
Neighbor copy:   4.6638 s.
Neighbor build:  41.4251 s.
Force calc:      754.8206 s.
Device Overhead: 114.3647 s.
CPU Neighbor:    15.7437 s.
CPU Cast/Pack:   61.1648 s.
CPU Driver_Time: 5.9889 s.
CPU Idle_Time:   2.2760 s.
Average split:   1.0000.
Max Mem / Proc:  140.67 MB.
Prefetch mode:   None.
Vector width:    32.
Lanes / atom:    8.
Pair block:      256.
Neigh block:     128.
Neigh mode:      Hybrid (binning on host) with subgroup support
---------------------------------------------------------------------


--------------------------------------------------------------------------
- Using acceleration for lj/cut/tip4p/long/gpu:
-  with 1 proc(s) per device.
-  with 5 thread(s) per proc.
-  Horizontal vector operations: ENABLED
-  Shared memory system: No
--------------------------------------------------------------------------
Device 0: Quadro RTX 6000, 72 CUs, 20/23 GB, 1.8 GHZ (Mixed Precision)
--------------------------------------------------------------------------

Initializing Device and compiling on process 0...Done.
Initializing Device 0 on core 0...Done.

Generated 0 of 3 mixed pair_coeff terms from geometric mixing rule
Setting up Verlet run ...
  Unit style    : real
  Current step  : 300010
  Time step     : 2
Per MPI rank memory allocation (min/avg/max) = 54.69 | 54.69 | 54.69 Mbytes
   Step          Temp          Press          Volume         PotEng         KinEng         TotEng        Density    
    300010   297.84284     -179.66669      54260.312     -21207.834      3331.962      -17875.872      1.0513662    
    301000   297.45727     -285.56723      54175.486     -21284.665      3327.6486     -17957.016      1.0530124    
    302000   304.68414      648.68486      54677.856     -21289.185      3408.4955     -17880.69       1.0433375    
    303000   303.29672      619.03996      54746.787     -21288.489      3392.9744     -17895.515      1.0420238    
    304000   302.98328     -307.95795      54317.8       -21247.094      3389.4679     -17857.626      1.0502535    
    305000   299.41888     -376.89896      54333.716     -21185.965      3349.593      -17836.372      1.0499458    
    306000   301.57968     -33.599385      54539.906     -21105.818      3373.7659     -17732.052      1.0459765    
    307000   297.08159      395.94472      54258.046     -21264.381      3323.4458     -17940.935      1.0514101    
    308000   303.15114     -610.80095      54004.124     -21269.877      3391.3458     -17878.531      1.0563537    
    309000   305.49424      95.335611      53872.578     -21243.376      3417.558      -17825.818      1.0589331    
    310000   305.19002      169.81149      54178.792     -21265.836      3414.1547     -17851.681      1.0529481    
    311000   299.99029      442.95765      54268.332     -21462.673      3355.9854     -18106.687      1.0512108    
    312000   297.49579      175.32653      54359.235     -21207.764      3328.0795     -17879.685      1.0494529    
    313000   301.73415     -575.70896      54800.337     -21292.587      3375.494      -17917.093      1.0410056    
    314000   299.77452      212.04344      53887.988     -21282.596      3353.5716     -17929.025      1.0586303    
    315000   290.9598       653.8131       54493.619     -21110.087      3254.9615     -17855.126      1.0468649    
    316000   301.78269     -97.152713      53831.348     -21206.537      3376.0369     -17830.5        1.0597442    
    317000   296.44625     -1298.7947      54592.492     -21363.442      3316.3383     -18047.104      1.0449689    
    318000   300.50366      600.46129      53629.314     -21332.166      3361.7285     -17970.438      1.0637365    
    319000   294.60075      822.46452      53277.379     -21234.687      3295.6927     -17938.995      1.0707632    
    320000   301.68253      475.68953      53823.92      -21102.088      3374.9165     -17727.172      1.0598904    
    321000   296.29258     -128.02484      53547.254     -21118.697      3314.6192     -17804.078      1.0653666    
    322000   292.10696     -458.21116      54229.384     -21271.597      3267.7948     -18003.802      1.0519658    
    323000   303.45948     -2.4826403      54110.46      -21280.83       3394.7951     -17886.035      1.0542778    
    324000   298.64005     -439.08722      54065.772     -21220.609      3340.8803     -17879.729      1.0551492    
    325000   291.19845     -282.55148      53878.89      -21337.898      3257.6313     -18080.267      1.0588091    
    326000   305.62749      667.5284       54308.457     -21258.027      3419.0487     -17838.978      1.0504341    
    327000   302.86687     -98.763676      54052.638     -21280.675      3388.1656     -17892.509      1.0554056    
    328000   304.65708     -580.46184      54539.73      -21282.192      3408.1927     -17873.999      1.0459798    
    329000   302.92657     -110.17717      54182.169     -21239.922      3388.8335     -17851.089      1.0528825    
    330000   297.61958     -187.56018      54296.999     -21281.178      3329.4644     -17951.713      1.0506558    
    331000   289.82337     -734.15381      54721.176     -21172.207      3242.2483     -17929.959      1.0425115    
    332000   301.5836      -699.96143      54945.183     -21245.932      3373.8098     -17872.122      1.0382613    
    333000   307.20155      491.90768      54551.873     -21165.661      3436.6576     -17729.004      1.045747     
    334000   300.41996     -378.95194      54126.765     -21226.613      3360.7921     -17865.821      1.0539602    
    335000   299.31104     -610.23922      54135.592     -21067.971      3348.3867     -17719.584      1.0537884    
    336000   292.02585     -946.11994      54111.095     -21093.535      3266.8874     -17826.648      1.0542655    
    337000   296.27008     -183.62304      54150.979     -21206.423      3314.3675     -17892.055      1.053489     
    338000   293.33027      222.50098      53844.113     -21234.179      3281.4799     -17952.699      1.0594929    
    339000   296.98697     -516.15606      54533.637     -21218.923      3322.3873     -17896.536      1.0460967    
    340000   295.03698     -154.95812      54470.84      -21232.996      3300.5728     -17932.424      1.0473027    
    341000   302.81362     -257.46023      54085.305     -21220.705      3387.57       -17833.135      1.0547682    
    342000   305.36001      608.42817      54292.824     -21226.711      3416.0563     -17810.655      1.0507366    
    343000   299.97888      94.362611      54407.567     -21169.033      3355.8578     -17813.175      1.0485206    
    344000   296.24041     -672.75298      54562.054     -21198.986      3314.0355     -17884.951      1.0455519    
    345000   300.66681      32.660554      54369.5       -21058.159      3363.5537     -17694.606      1.0492548    
    346000   297.46802      22.648131      54820.07      -21324.647      3327.7689     -17996.878      1.0406309    
    347000   294.172        181.69964      54544.704     -21184.723      3290.8963     -17893.827      1.0458844    
    348000   300.93264     -628.14772      55145.426     -21167.379      3366.5274     -17800.852      1.0344912    
    349000   297.41624      225.28781      53925.351     -21275.143      3327.1896     -17947.953      1.0578968    
    350000   299.18643     -1061.071       54555.336     -21194.24       3346.9926     -17847.247      1.0456806    
    351000   297.4334      -156.66615      54229.718     -21273.432      3327.3816     -17946.05       1.0519593    
    352000   291.95571      298.30241      54334.712     -21143.122      3266.1028     -17877.02       1.0499266    
    353000   305.8467      -178.36472      53570.833     -21386.393      3421.501      -17964.892      1.0648977    
    354000   295.92426      47.57392       54272.478     -21244.397      3310.4988     -17933.898      1.0511305    
    355000   296.72173     -27.046263      54247.501     -21251.708      3319.4201     -17932.288      1.0516145    
    356000   299.72683      51.190042      53862.244     -21341.761      3353.0381     -17988.723      1.0591363    
    357000   307.23794      223.51411      54121.81      -21257.435      3437.0647     -17820.371      1.0540567    
    358000   303.45507     -6.1306669      54651.238     -21245.216      3394.7459     -17850.47       1.0438457    
    359000   300.66724      586.74472      53989.208     -21274.205      3363.5584     -17910.647      1.0566456    
    360000   298.06683      4.4651864      54294.824     -21260.149      3334.4677     -17925.681      1.0506979    
    361000   299.90108      192.90208      54410.938     -21275.729      3354.9874     -17920.742      1.0484557    
    362000   299.47125      261.82106      54386.854     -21200.886      3350.1789     -17850.708      1.04892      
    363000   296.35404     -173.56605      54168.191     -21160.618      3315.3067     -17845.311      1.0531542    
    364000   302.57914      24.380937      54312.477     -21248.203      3384.9469     -17863.257      1.0503564    
    365000   297.34542     -239.094        54765.011     -21224.502      3326.3973     -17898.105      1.0416771    
    366000   295.15763      186.9828       53906         -21402.197      3301.9225     -18100.275      1.0582766    
    367000   298.54465     -469.9743       54412.773     -21356.463      3339.813      -18016.65       1.0484203    
    368000   305.88275     -90.639799      54470.186     -21072.231      3421.9043     -17650.327      1.0473153    
    369000   293.24994     -633.24848      53810.418     -21411.447      3280.5813     -18130.866      1.0601564    
    370000   302.77396      631.11518      54593.842     -21243.64       3387.1263     -17856.514      1.0449431    
    371000   298.85806      742.11038      53951.108     -21303.934      3343.3192     -17960.615      1.0573918    
    372000   306.7501       316.48464      53655.534     -21350.351      3431.6073     -17918.744      1.0632167    
    373000   304.0494      -427.14966      54411.237     -21229.053      3401.3946     -17827.659      1.0484499    
    374000   304.08234      1308.9021      53667.005     -21279.215      3401.7631     -17877.452      1.0629894    
    375000   308.35503      52.515874      54237.27      -21234.481      3449.5616     -17784.92       1.0518128    
    376000   300.70288     -213.44479      53887.376     -21224.289      3363.9571     -17860.332      1.0586423    
    377000   297.51277     -27.125575      53986.605     -21211.888      3328.2695     -17883.619      1.0566965    
    378000   298.97779      973.0366       53950.054     -21173.517      3344.6586     -17828.859      1.0574124    
    379000   305.13108     -274.74234      53812.565     -21346.787      3413.4953     -17933.292      1.0601141    
    380000   298.16169      504.43046      54635.952     -21216.486      3335.5289     -17880.957      1.0441377    
[...]
   1487000   303.78176     -52.53733       53973.321     -21367.908      3398.4006     -17969.508      1.0569566    
   1488000   299.78656      33.661433      54577.373     -21302.266      3353.7062     -17948.559      1.0452584    
   1489000   296.01392     -152.66261      54384.219     -21219.681      3311.5018     -17908.179      1.0489708    
   1490000   299.4984       594.21708      53933.204     -21182.246      3350.4826     -17831.764      1.0577428    
   1491000   303.56817      18.106203      54309.481     -21173.127      3396.0111     -17777.116      1.0504143    
   1492000   302.12199      25.980338      54297.438     -21185.65       3379.8327     -17805.817      1.0506473    
   1493000   300.33726      648.07177      54076.186     -21254.398      3359.867      -17894.531      1.054946     
   1494000   293.16874     -393.76378      54388.513     -21190.729      3279.6728     -17911.056      1.048888     
   1495000   302.09778      294.02794      54084.646     -21276.472      3379.5618     -17896.91       1.054781     
   1496000   301.39492      188.91798      54194.109     -21229.623      3371.699      -17857.924      1.0526505    
   1497000   298.46668      81.230597      54320.575     -21130.648      3338.9408     -17791.707      1.0501998    
   1498000   302.76493      266.66568      54132.848     -21234.568      3387.0252     -17847.543      1.0538418    
   1499000   292.69816      134.98957      54602.832     -21161.783      3274.4085     -17887.374      1.044771     
   1500000   293.08792     -34.096305      54306.453     -21236.925      3278.7687     -17958.156      1.0504729    
   1501000   300.10751      210.93129      54375.983     -21331.574      3357.2968     -17974.278      1.0491297    
   1502000   300.23814     -157.53864      54708.083     -21187.373      3358.7581     -17828.615      1.042761     
   1503000   301.98421     -218.7984       53669.616     -21264.151      3378.2914     -17885.86       1.0629377    
   1504000   304.46515      152.41136      54717.491     -21255.108      3406.0456     -17849.063      1.0425818    
   1505000   290.27972     -222.89433      54838.219     -21125.381      3247.3534     -17878.028      1.0402865    
   1506000   289.58582      885.06763      54238.664     -21288.775      3239.5908     -18049.184      1.0517858    
   1507000   301.39812      1106.3489      54259.103     -21221.187      3371.7348     -17849.453      1.0513896    
   1508000   296.90728      500.80436      53782.932     -21304.206      3321.4958     -17982.71       1.0606982    
   1509000   295.7212      -803.39535      54042.465     -21193.581      3308.2272     -17885.354      1.0556043    
   1510000   303.65265      123.95043      53911.284     -21258.42       3396.9562     -17861.464      1.0581729    
   1511000   291.48267      193.8142       54353.995     -21262.851      3260.8108     -18002.04       1.0495541    
   1512000   294.48476     -368.54272      54081.783     -21267.949      3294.3952     -17973.553      1.0548369    
   1513000   292.84212     -769.23529      54460.4       -21180.181      3276.019      -17904.162      1.0475035    
   1514000   299.8562      -66.184705      54498.757     -21223.188      3354.4853     -17868.703      1.0467662    
   1515000   299.45577     -997.57744      54641.448     -21235.253      3350.0058     -17885.248      1.0440327    
   1516000   299.11296     -180.36173      54229.456     -21359.278      3346.1707     -18013.107      1.0519644    
   1517000   303.50017      407.73958      54407.72      -21176.178      3395.2504     -17780.927      1.0485177    
   1518000   299.1965      -174.32303      54262.578     -21239.939      3347.1053     -17892.833      1.0513223    
   1519000   305.35393      143.05112      54265.497     -21338.516      3415.9884     -17922.528      1.0512657    
   1520000   303.98986      445.76347      54055.682     -21395.948      3400.7285     -17995.219      1.0553462    
   1521000   299.98917     -936.53484      54521.274     -21344.64       3355.9729     -17988.667      1.0463339    
   1522000   301.55614     -445.09982      54544.191     -21185.332      3373.5025     -17811.829      1.0458943    
   1523000   301.63412      988.98464      54047.729     -21146.91       3374.3749     -17772.535      1.0555015    
   1524000   305.72862     -247.8515       54138.237     -21248.018      3420.18       -17827.838      1.0537369    
   1525000   307.72453      31.592301      53893.086     -21204.771      3442.5082     -17762.263      1.0585302    
   1526000   290.20359     -125.65572      54215.191     -21133.032      3246.5017     -17886.53       1.0522412    
   1527000   304.72465      1126.7745      53988.678     -21224.912      3408.9486     -17815.963      1.056656     
   1528000   300.96         104.49016      53998.921     -21305.088      3366.8336     -17938.254      1.0564555    
   1529000   300.75541      150.35368      54170.611     -21213.876      3364.5448     -17849.331      1.0531072    
   1530000   298.99461      634.37028      53807.922     -21230.642      3344.8468     -17885.795      1.0602056    
   1531000   300.1336       98.991585      53747.773     -21256.923      3357.5886     -17899.335      1.061392     
   1532000   299.12344     -1145.161       54246.573     -21321.953      3346.2879     -17975.665      1.0516325    
   1533000   300.77133      464.65476      53926.532     -21364.497      3364.7229     -17999.775      1.0578737    
   1534000   294.86484      195.87467      54214.314     -21201.738      3298.6471     -17903.09       1.0522582    
   1535000   296.87196     -835.33501      54848.897     -21288.356      3321.1007     -17967.256      1.0400839    
   1536000   298.68445      288.87484      54354.574     -21243.52       3341.377      -17902.143      1.0495429    
   1537000   296.62141     -623.63421      54151.122     -21311.823      3318.2978     -17993.525      1.0534862    
   1538000   299.89797     -210.1801       54058.443     -21272.535      3354.9526     -17917.582      1.0552923    
   1539000   301.02548      355.69383      53707.403     -21262.078      3367.5661     -17894.512      1.0621898    
   1540000   301.43601      361.50268      54194.261     -21313.601      3372.1587     -17941.442      1.0526476    
   1541000   303.15146     -565.41115      54272.15      -21261.231      3391.3493     -17869.882      1.0511369    
   1542000   303.23629     -127.64616      54169.355     -21475.677      3392.2984     -18083.378      1.0531316    
   1543000   300.53009      67.003885      53943.685     -21232.341      3362.0241     -17870.317      1.0575373    
   1544000   302.73405      440.32893      53806.628     -21297.5        3386.6798     -17910.82       1.060231     
   1545000   301.74733     -640.74617      53878.588     -21342.639      3375.6413     -17966.997      1.058815     
   1546000   306.07599     -441.40609      54238.273     -21121.174      3424.066      -17697.108      1.0517934    
   1547000   306.84514     -387.39942      54144.694     -21173.196      3432.6705     -17740.525      1.0536112    
   1548000   304.54686      89.575412      54243.654     -21264.436      3406.9596     -17857.476      1.0516891    
   1549000   306.21897      349.68406      54292.227     -21340.856      3425.6655     -17915.19       1.0507482    
   1550000   300.23557      443.15576      53836.593     -21231.037      3358.7294     -17872.308      1.0596409    
   1551000   300.51031     -46.969755      54515.197     -21265.862      3361.8029     -17904.059      1.0464505    
   1552000   301.75309     -510.36637      54633.683     -21248.971      3375.7058     -17873.265      1.0441811    
   1553000   301.12294      1832.6691      53632.574     -21341.898      3368.6563     -17973.242      1.0636718    
   1554000   301.11153      2.9704759      54308.482     -21132.729      3368.5287     -17764.201      1.0504337    
   1555000   303.73243     -35.132169      54566.87      -21191.313      3397.8487     -17793.464      1.0454596    
   1556000   297.83509      25.619108      53707.251     -21228.867      3331.8752     -17896.992      1.0621928    
   1557000   300.58621     -1374.3556      53884.401     -21264.155      3362.6519     -17901.503      1.0587008    
   1558000   293.68935     -29.083511      53986.284     -21393.757      3285.4969     -18108.26       1.0567028    
   1559000   296.25051      222.43956      54162.609     -21332.979      3314.1486     -18018.831      1.0532627    
   1560000   298.94223      91.192918      54071.148     -21278.134      3344.2608     -17933.873      1.0550443    
   1561000   297.43904      667.1992       54567.355     -21225.637      3327.4447     -17898.193      1.0454503    
   1562000   294.66851      91.493286      53897.914     -21263.276      3296.4507     -17966.825      1.0584353    
   1563000   296.38979     -641.67777      54503.607     -21327.438      3315.7067     -18011.731      1.0466731    
   1564000   298.35269      624.66143      53606.004     -21376.425      3337.6656     -18038.759      1.064199     
   1565000   298.46854      763.70922      54128.788     -21250.466      3338.9616     -17911.504      1.0539208    
   1566000   295.20602      591.29986      53870.552     -21107.843      3302.4639     -17805.379      1.058973     
   1567000   303.17303      151.48829      53800.812     -21306.321      3391.5906     -17914.73       1.0603457    
   1568000   297.7942       191.89911      54132.156     -21131.867      3331.4177     -17800.45       1.0538553    
   1569000   303.0669       207.01476      54357.951     -21244.966      3390.4034     -17854.562      1.0494777    
   1570000   307.05532     -325.29939      53352.369     -21238.958      3435.0218     -17803.937      1.0692582    
   1571000   296.92731      599.70711      53737.114     -21099.935      3321.7199     -17778.215      1.0616026    
   1572000   297.31065      522.25454      53986.576     -21172.51       3326.0083     -17846.501      1.0566971    
   1573000   299.50847      100.80812      54060.35      -21270.961      3350.5953     -17920.366      1.0552551    
   1574000   292.17511      149.6352       53568.701     -21319.563      3268.5571     -18051.005      1.0649401    
   1575000   297.07894     -5.3772222      53553.006     -21255.774      3323.4162     -17932.358      1.0652522    
   1576000   296.03267      694.86389      53835.4       -21243.14       3311.7116     -17931.429      1.0596644    
   1577000   306.26591      466.96779      54110.265     -21250.854      3426.1907     -17824.663      1.0542816    
   1578000   303.45574      360.78513      54291.878     -21302.944      3394.7533     -17908.19       1.0507549    
   1579000   296.31153     -57.110167      54715.886     -21166.859      3314.8312     -17852.028      1.0426123    
   1580000   291.55291      494.98341      55024.889     -21185.75       3261.5966     -17924.153      1.0367573    
   1581000   303.23937     -313.36214      54932.141     -21224.564      3392.3328     -17832.231      1.0385078    
   1582000   300.37927     -447.73563      54776.963     -21112.765      3360.3369     -17752.428      1.0414498    
   1583000   303.57362      1068.6361      54077.485     -21220.999      3396.072      -17824.927      1.0549207    
   1584000   299.10558      240.83198      54083.352     -21256.457      3346.0881     -17910.369      1.0548063    
   1585000   299.53458      561.39782      54184.05      -21263.973      3350.8874     -17913.086      1.0528459    
   1586000   298.10763     -546.82353      54266.429     -21152.056      3334.9242     -17817.131      1.0512477    
   1587000   306.6914      -862.03933      54309.266     -21302.378      3430.9506     -17871.427      1.0504185    
   1588000   291.739       -250.57531      54300.028     -21365.889      3263.6783     -18102.21       1.0505972    
   1589000   299.73129      515.08754      54169.481     -21384.888      3353.088      -18031.8        1.0531291    
   1590000   303.89907     -546.53061      54209.939     -21320.704      3399.7129     -17920.991      1.0523431    
   1591000   296.31233     -422.28168      54711.679     -21173.348      3314.8402     -17858.508      1.0426925    
   1592000   307.44452     -21.676812      54471.482     -21232.059      3439.3757     -17792.683      1.0472903    
   1593000   300.53742     -571.13376      54269.792     -21294.75       3362.1062     -17932.644      1.0511825    
   1594000   304.56445      637.46198      53902.982     -21205.127      3407.1564     -17797.971      1.0583358    
   1595000   298.89913     -429.45221      54340.094     -21207.292      3343.7787     -17863.513      1.0498226    
   1596000   300.69245      300.18617      53871.854     -21264.105      3363.8404     -17900.264      1.0589474    
   1597000   303.59936      535.30146      53954.086     -21248.722      3396.36       -17852.362      1.0573334    
   1598000   298.58285     -64.588345      54834.872     -21180.189      3340.2404     -17839.949      1.04035      
   1599000   301.62752      605.38637      54257.755     -21246.032      3374.3011     -17871.731      1.0514157    
   1600000   301.81591      465.73703      54292.375     -21318.645      3376.4086     -17942.237      1.0507453    
   1600010   306.54389     -46.11923       54321.974     -21375.617      3429.3004     -17946.317      1.0501728    
Loop time of 43493.2 on 5 procs for 1000000 steps with 5541 atoms

Performance: 3.973 ns/day, 6.041 hours/ns, 22.992 timesteps/s, 127.399 katom-step/s
341.6% CPU use with 1 MPI tasks x 5 OpenMP threads

MPI task timing breakdown:
Section |  min time  |  avg time  |  max time  |%varavg| %total
---------------------------------------------------------------
Pair    | 1785.4     | 1785.4     | 1785.4     |   0.0 |  4.10
Bond    | 18.759     | 18.759     | 18.759     |   0.0 |  0.04
Kspace  | 22299      | 22299      | 22299      |   0.0 | 51.27
Neigh   | 39.109     | 39.109     | 39.109     |   0.0 |  0.09
Comm    | 451.61     | 451.61     | 451.61     |   0.0 |  1.04
Output  | 16.428     | 16.428     | 16.428     |   0.0 |  0.04
Modify  | 18703      | 18703      | 18703      |   0.0 | 43.00
Other   |            | 179.5      |            |       |  0.41

Nlocal:           5541 ave        5541 max        5541 min
Histogram: 1 0 0 0 0 0 0 0 0 0
Nghost:          35527 ave       35527 max       35527 min
Histogram: 1 0 0 0 0 0 0 0 0 0
Neighs:    4.75204e+06 ave 4.75204e+06 max 4.75204e+06 min
Histogram: 1 0 0 0 0 0 0 0 0 0

Total # of neighbors = 4752037
Ave neighs/atom = 857.61361
Ave special neighs/atom = 2.4872767
Neighbor list builds = 93170
Dangerous builds = 0

===== Saving Final Configuration =====
System init for write_data ...
PPPM initialization ...
  extracting TIP4P info from pair style
  using 12-bit tables for long-range coulomb
  G vector (1/distance) = 0.28830884
  grid = 50 50 50
  stencil order = 5
  estimated absolute RMS force accuracy = 0.00033004612
  estimated relative force accuracy = 9.9392409e-07
  using double precision FFTW3
  3d grid and FFT values/proc = 205379 125000


---------------------------------------------------------------------
      Device Time Info (average): 
---------------------------------------------------------------------
Data Transfer:   131.6381 s.
Neighbor copy:   23.6159 s.
Neighbor build:  205.5419 s.
Force calc:      3758.1758 s.
Device Overhead: 25.4048 s.
CPU Neighbor:    79.0165 s.
CPU Cast/Pack:   314.9253 s.
CPU Driver_Time: 22.2503 s.
CPU Idle_Time:   11.4927 s.
Average split:   1.0000.
Max Mem / Proc:  140.68 MB.
Prefetch mode:   None.
Vector width:    32.
Lanes / atom:    8.
Pair block:      256.
Neigh block:     128.
Neigh mode:      Hybrid (binning on host) with subgroup support
---------------------------------------------------------------------


--------------------------------------------------------------------------
- Using acceleration for lj/cut/tip4p/long/gpu:
-  with 1 proc(s) per device.
-  with 5 thread(s) per proc.
-  Horizontal vector operations: ENABLED
-  Shared memory system: No
--------------------------------------------------------------------------
Device 0: Quadro RTX 6000, 72 CUs, 20/23 GB, 1.8 GHZ (Mixed Precision)
--------------------------------------------------------------------------

Initializing Device and compiling on process 0...Done.
Initializing Device 0 on core 0...Done.

Generated 0 of 3 mixed pair_coeff terms from geometric mixing rule
WARNING: Not all mixed pair coeffs generated from mixing. Use write_data with 'pair ij' option to store all pair coeffs. (src/write_data.cpp:364)
System init for write_restart ...
PPPM initialization ...
  extracting TIP4P info from pair style
  using 12-bit tables for long-range coulomb
  G vector (1/distance) = 0.28830884
  grid = 50 50 50
  stencil order = 5
  estimated absolute RMS force accuracy = 0.00033004612
  estimated relative force accuracy = 9.9392409e-07
  using double precision FFTW3
  3d grid and FFT values/proc = 205379 125000

--------------------------------------------------------------------------
- Using acceleration for lj/cut/tip4p/long/gpu:
-  with 1 proc(s) per device.
-  with 5 thread(s) per proc.
-  Horizontal vector operations: ENABLED
-  Shared memory system: No
--------------------------------------------------------------------------
Device 0: Quadro RTX 6000, 72 CUs, 20/23 GB, 1.8 GHZ (Mixed Precision)
--------------------------------------------------------------------------

Initializing Device and compiling on process 0...Done.
Initializing Device 0 on core 0...Done.

Generated 0 of 3 mixed pair_coeff terms from geometric mixing rule

ïêïêïêïêïêïêïêïêïêïêïêïêïêïêïêïêïêïêïêïêïêïêïêïêïêïêïêïêïêïêïêïêïêïêïêïêïêïêïêïêïêïêïêïêïêïêïêïêïêïêïêïêïêïêïêïêïêïêïêïêïêïêïêïêïêïêïêïêïêïêïêïêïêïêïêïê
                     EQUILIBRATION COMPLETE - SUCCESS!
ïêïêïêïêïêïêïêïêïêïêïêïêïêïêïêïêïêïêïêïêïêïêïêïêïêïêïêïêïêïêïêïêïêïêïêïêïêïêïêïêïêïêïêïêïêïêïêïêïêïêïêïêïêïêïêïêïêïêïêïêïêïêïêïêïêïêïêïêïêïêïêïêïêïêïêïê

Simulation Summary:
  Total simulation time: 5.22 ns
    - NVT thermalization:     50 ps
    - Pre-equilibration:      50 ps  (NEW - prevents PPPM artifacts)
    - Pressure ramp:         100 ps  (EXTENDED and with drag damping)
    - NPT equilibration:    1000 ps
    - Production run:       4000 ps (4 ns)

Final Thermodynamic State:
  Temperature:    306.543886900304 K      (target: 300K)
  Pressure:       -46.11922950498 atm   (target: 1 atm)
  Density:        1.05017277340464 g/cm≥  (target: 0.95-1.05)
  Volume:         54321.9735465526 Ö≥
  Box size:       37.8726051377413 Ö    (expected: 58-63)

Final Energies:
  Potential:      -21375.6170751753 kcal/mol
  Kinetic:        3429.30036794085 kcal/mol
  Total:          -17946.3167072344 kcal/mol


ERROR: Input line quote not followed by white-space (src/input.cpp:556)
Last input line: if "${final_dens} >= 0.85" then "if \"${final_dens} <= 1.15\" then \"jump SELF validation_success\" else \"jump SELF validation_warning\""
Cuda driver error 4 in call at file '/home/iiserk/sbs/solvent/mylammps_v2/lib/gpu/geryon/nvd_timer.h' in line 98.
Cuda driver error 4 in call at file '/home/iiserk/sbs/solvent/mylammps_v2/lib/gpu/geryon/nvd_timer.h' in line 99.
Cuda driver error 4 in call at file '/home/iiserk/sbs/solvent/mylammps_v2/lib/gpu/geryon/nvd_timer.h' in line 98.
Cuda driver error 4 in call at file '/home/iiserk/sbs/solvent/mylammps_v2/lib/gpu/geryon/nvd_timer.h' in line 99.
Cuda driver error 4 in call at file '/home/iiserk/sbs/solvent/mylammps_v2/lib/gpu/geryon/nvd_timer.h' in line 98.
Cuda driver error 4 in call at file '/home/iiserk/sbs/solvent/mylammps_v2/lib/gpu/geryon/nvd_timer.h' in line 99.
Cuda driver error 4 in call at file '/home/iiserk/sbs/solvent/mylammps_v2/lib/gpu/geryon/nvd_timer.h' in line 98.
Cuda driver error 4 in call at file '/home/iiserk/sbs/solvent/mylammps_v2/lib/gpu/geryon/nvd_timer.h' in line 99.
